 Gaussian 16, Revision B.01,
 Gaussian 16:  AM64L-G16RevB.01 20-Dec-2017

 -----------------
 #p gen 6d pbe1pbe
 -----------------

 ------------------
 start preoptimized
 ------------------
 Symbolic Z-matrix:
 Charge =  0 Multiplicity = 2

                         Standard orientation:
 ---------------------------------------------------------------------
 Center     Atomic      Atomic             Coordinates (Angstroms)
 Number     Number       Type             X           Y           Z
 ---------------------------------------------------------------------
      1          8           0       -3.732203    0.191121    0.930231
      2          7           0       -2.618585    0.035727    0.362683
      3          6           0       -2.162860   -1.269950   -0.158776
      4          6           0       -0.875127   -0.856000   -0.806924
      5          6           0       -0.603843    0.445058   -0.654898
      6          6           0        0.604260    1.124039   -1.198851
      7         16           0        1.942638    1.445731    0.030663
      8          6           0       -1.696010    1.163820    0.109182
      9          6           0       -1.249416    1.758353    1.447797
     10          6           0       -2.415385    2.222714   -0.731116
     11          6           0       -3.192843   -1.818117   -1.148997
     12          6           0       -1.946439   -2.250794    0.997510
     13          1           0       -0.230364   -1.566490   -1.317601
     14          1           0        1.060612    0.538036   -2.001761
     15          1           0        0.383590    2.126030   -1.584657
     16          1           0       -0.689654    1.026681    2.038095
     17          1           0       -0.613990    2.637017    1.296302
     18          1           0       -2.138412    2.064044    2.009597
     19          1           0       -3.313432    2.550586   -0.199357
     20          1           0       -1.773504    3.095901   -0.893321
     21          1           0       -2.713706    1.817328   -1.703648
     22          1           0       -3.332880   -1.131545   -1.989178
     23          1           0       -2.866864   -2.787354   -1.539085
     24          1           0       -4.153284   -1.947892   -0.639542
     25          1           0       -2.886880   -2.386985    1.541744
     26          1           0       -1.616901   -3.222585    0.615353
     27          1           0       -1.185837   -1.876268    1.690283
     28         16           0        2.757715   -0.530873    0.105819
     29          8           0        2.336075   -1.209117    1.349328
     30          8           0        2.504677   -1.177126   -1.207537
     31          6           0        4.510498   -0.169672    0.239899
     32          1           0        4.663712    0.446569    1.127472
     33          1           0        4.997396   -1.141610    0.354506
     34          1           0        4.829443    0.334988   -0.672839
 ---------------------------------------------------------------------

 SCF Done:  E(UPBE1PBE) =  -1467.54877045     A.U. after   16 cycles

 The electronic state is 2-A.
 Alpha  occ. eigenvalues --  -89.28814 -89.08204 -19.24734 -19.24246 -19.22567
 Alpha  occ. eigenvalues --  -14.48492 -10.29801 -10.29710 -10.29121 -10.28706
 Alpha  occ. eigenvalues --  -10.26152 -10.24882 -10.23217 -10.22697 -10.22683
 Alpha  occ. eigenvalues --  -10.22401  -8.22131  -8.04447  -6.15852  -6.15810
 Alpha  occ. eigenvalues --   -6.15695  -5.98289  -5.97910  -5.97188  -1.14680
 Alpha  occ. eigenvalues --   -1.13863  -1.04446  -0.93330  -0.85926  -0.84054
 Alpha  occ. eigenvalues --   -0.82267  -0.77255  -0.74904  -0.72077  -0.71234
 Alpha  occ. eigenvalues --   -0.70602  -0.64493  -0.62473  -0.59033  -0.56407
 Alpha  occ. eigenvalues --   -0.53133  -0.51823  -0.51298  -0.50759  -0.50316
 Alpha  occ. eigenvalues --   -0.48508  -0.47433  -0.46371  -0.46180  -0.45193
 Alpha  occ. eigenvalues --   -0.44662  -0.44015  -0.42755  -0.42449  -0.41663
 Alpha  occ. eigenvalues --   -0.40531  -0.40046  -0.39199  -0.38934  -0.36498
 Alpha  occ. eigenvalues --   -0.36392  -0.36146  -0.35743  -0.35652  -0.34584
 Alpha  occ. eigenvalues --   -0.33582  -0.31772  -0.28346  -0.27181  -0.26908
 Alpha  occ. eigenvalues --   -0.19913
 Alpha virt. eigenvalues --   -0.05434  -0.02481   0.00447   0.01058   0.02621
 Alpha virt. eigenvalues --    0.03426   0.03732   0.04553   0.04789   0.04998
 Alpha virt. eigenvalues --    0.05455   0.05825   0.06169   0.06283   0.06854

  Beta  occ. eigenvalues --  -89.28814 -89.08204 -19.24734 -19.24246 -19.21143
  Beta  occ. eigenvalues --  -14.47294 -10.29803 -10.29710 -10.29190 -10.28774
  Beta  occ. eigenvalues --  -10.26151 -10.24880 -10.23167 -10.22649 -10.22631
  Beta  occ. eigenvalues --  -10.22347  -8.22131  -8.04447  -6.15852  -6.15810
  Beta  occ. eigenvalues --   -6.15695  -5.98289  -5.97909  -5.97188  -1.14680
  Beta  occ. eigenvalues --   -1.11233  -1.04446  -0.92392  -0.85738  -0.83952
  Beta  occ. eigenvalues --   -0.82134  -0.77065  -0.73835  -0.71830  -0.71105
  Beta  occ. eigenvalues --   -0.70131  -0.64440  -0.62344  -0.58658  -0.55895
  Beta  occ. eigenvalues --   -0.53045  -0.51815  -0.51020  -0.50417  -0.48379
  Beta  occ. eigenvalues --   -0.47535  -0.47189  -0.46360  -0.46114  -0.44977
  Beta  occ. eigenvalues --   -0.44316  -0.43871  -0.42514  -0.41628  -0.41177
  Beta  occ. eigenvalues --   -0.40219  -0.40011  -0.38853  -0.37680  -0.36342
  Beta  occ. eigenvalues --   -0.36102  -0.35705  -0.35676  -0.34556  -0.33581
  Beta  occ. eigenvalues --   -0.32858  -0.31769  -0.28260  -0.26738  -0.25984
  Beta virt. eigenvalues --   -0.05436  -0.03579  -0.02433   0.00458   0.01063
  Beta virt. eigenvalues --    0.02643   0.03449   0.03772   0.04590   0.04880
  Beta virt. eigenvalues --    0.05032   0.05482   0.05870   0.06198   0.06312

 Mulliken charges and spin densities:
               1          2
     1  O   -0.521981   0.479632
     2  N   -0.012816   0.506369
     3  C    0.217515  -0.039128
     4  C   -0.232493  -0.000205
     5  C    0.090705   0.002048
     6  C   -0.417035  -0.000654
     7  S   -0.021438   0.000688
     8  C    0.220660  -0.037052
     9  C   -0.316627   0.023247
    10  C   -0.340618   0.023733
    11  C   -0.339980   0.023271
    12  C   -0.325683   0.024164
    13  H    0.152594  -0.000937
    14  H    0.202103  -0.000088
    15  H    0.165588   0.000099
    16  H    0.127084  -0.001330
    17  H    0.109646   0.001601
    18  H    0.141963  -0.001309
    19  H    0.149961  -0.001280
    20  H    0.107979   0.001149
    21  H    0.117895  -0.001166
    22  H    0.116488  -0.001272
    23  H    0.119540   0.000757
    24  H    0.145651  -0.001212
    25  H    0.138921  -0.001283
    26  H    0.116488   0.001642
    27  H    0.127297  -0.001450
    28  S    0.891359  -0.000075
    29  O   -0.511283   0.000020
    30  O   -0.570106   0.000026
    31  C   -0.395281  -0.000008
    32  H    0.177229  -0.000001
    33  H    0.186180   0.000003
    34  H    0.182495  -0.000000
 Sum of Mulliken charges =  -0.00000   1.00000

 Dipole moment (field-independent basis, Debye):
    X=              4.2214    Y=              1.8500    Z=             -2.1126  Tot=              5.0701
 Quadrupole moment (field-independent basis, Debye-Ang):
   XX=           -107.9217   YY=           -109.0495   ZZ=           -116.0683
   XY=              5.5867   XZ=              6.6237   YZ=             -0.6274

 Normal termination of Gaussian 16 at Wed Jun 12 15:26:11 2019.
