 Gaussian 16, Revision B.01,
 Gaussian 16:  AM64L-G16RevB.01 20-Dec-2017

 -----------------
 #p gen 6d pbe1pbe
 -----------------

 ------------------
 start preoptimized
 ------------------
 Symbolic Z-matrix:
 Charge =  0 Multiplicity = 2

                         Standard orientation:
 ---------------------------------------------------------------------
 Center     Atomic      Atomic             Coordinates (Angstroms)
 Number     Number       Type             X           Y           Z
 ---------------------------------------------------------------------
      1          8           0       -3.659778    0.171017    1.056398
      2          7           0       -2.647747    0.053105    0.296815
      3          6           0       -2.174654   -1.261460   -0.180793
      4          6           0       -0.859053   -0.863141   -0.779070
      5          6           0       -0.591751    0.440773   -0.647953
      6          6           0        0.616916    1.120370   -1.190008
      7         16           0        1.951507    1.447481    0.041375
      8          6           0       -1.700351    1.170253    0.084820
      9          6           0       -1.289148    1.745219    1.442023
     10          6           0       -2.372549    2.248869   -0.772568
     11          6           0       -3.146462   -1.820577   -1.223838
     12          6           0       -2.038341   -2.220687    1.006637
     13          1           0       -0.202805   -1.579153   -1.268232
     14          1           0        1.074424    0.534006   -1.987993
     15          1           0        0.393304    2.119747   -1.579165
     16          1           0       -0.762378    0.998745    2.041323
     17          1           0       -0.634132    2.613818    1.314482
     18          1           0       -2.191236    2.057216    1.976698
     19          1           0       -3.287467    2.587141   -0.271943
     20          1           0       -1.715068    3.115986   -0.902808
     21          1           0       -2.640312    1.857971   -1.758818
     22          1           0       -3.232694   -1.144327   -2.083375
     23          1           0       -2.798428   -2.798449   -1.582060
     24          1           0       -4.137209   -1.943632   -0.774519
     25          1           0       -3.013200   -2.326276    1.494822
     26          1           0       -1.702812   -3.205100    0.660302
     27          1           0       -1.315308   -1.845841    1.734932
     28         16           0        2.751360   -0.536055    0.112696
     29          8           0        2.318361   -1.214723    1.353435
     30          8           0        2.497360   -1.171381   -1.202671
     31          6           0        4.508813   -0.197209    0.250356
     32          1           0        4.668594    0.413097    1.143513
     33          1           0        4.983847   -1.174996    0.361373
     34          1           0        4.833181    0.311732   -0.656305
 ---------------------------------------------------------------------

 SCF Done:  E(UPBE1PBE) =  -1467.54815676     A.U. after   16 cycles

 The electronic state is 2-A.
 Alpha  occ. eigenvalues --  -89.28800 -89.08189 -19.24752 -19.24217 -19.22673
 Alpha  occ. eigenvalues --  -14.48525 -10.29723 -10.29699 -10.29130 -10.28729
 Alpha  occ. eigenvalues --  -10.26124 -10.24856 -10.23345 -10.22886 -10.22545
 Alpha  occ. eigenvalues --  -10.22304  -8.22119  -8.04432  -6.15842  -6.15797
 Alpha  occ. eigenvalues --   -6.15683  -5.98272  -5.97897  -5.97172  -1.14728
 Alpha  occ. eigenvalues --   -1.13280  -1.04487  -0.93267  -0.85921  -0.84020
 Alpha  occ. eigenvalues --   -0.82240  -0.77236  -0.74921  -0.72100  -0.71227
 Alpha  occ. eigenvalues --   -0.70590  -0.64464  -0.62449  -0.58950  -0.56428
 Alpha  occ. eigenvalues --   -0.53162  -0.51831  -0.51308  -0.50748  -0.50130
 Alpha  occ. eigenvalues --   -0.48509  -0.47392  -0.46358  -0.46171  -0.45114
 Alpha  occ. eigenvalues --   -0.44644  -0.43940  -0.42772  -0.42416  -0.41653
 Alpha  occ. eigenvalues --   -0.40495  -0.40101  -0.38993  -0.38835  -0.36495
 Alpha  occ. eigenvalues --   -0.36354  -0.36193  -0.35746  -0.35655  -0.34529
 Alpha  occ. eigenvalues --   -0.33589  -0.31778  -0.28311  -0.27248  -0.26896
 Alpha  occ. eigenvalues --   -0.20312
 Alpha virt. eigenvalues --   -0.05454  -0.02446   0.00474   0.01075   0.02635
 Alpha virt. eigenvalues --    0.03405   0.03683   0.04591   0.04825   0.04989
 Alpha virt. eigenvalues --    0.05443   0.05799   0.06157   0.06290   0.06849

  Beta  occ. eigenvalues --  -89.28800 -89.08189 -19.24752 -19.24217 -19.21236
  Beta  occ. eigenvalues --  -14.47342 -10.29725 -10.29699 -10.29191 -10.28790
  Beta  occ. eigenvalues --  -10.26123 -10.24852 -10.23294 -10.22834 -10.22498
  Beta  occ. eigenvalues --  -10.22257  -8.22119  -8.04431  -6.15842  -6.15797
  Beta  occ. eigenvalues --   -6.15683  -5.98272  -5.97896  -5.97172  -1.14728
  Beta  occ. eigenvalues --   -1.10646  -1.04488  -0.92304  -0.85728  -0.83916
  Beta  occ. eigenvalues --   -0.82107  -0.77034  -0.73853  -0.71850  -0.71098
  Beta  occ. eigenvalues --   -0.70141  -0.64412  -0.62322  -0.58570  -0.55920
  Beta  occ. eigenvalues --   -0.53071  -0.51825  -0.51017  -0.50414  -0.48334
  Beta  occ. eigenvalues --   -0.47506  -0.47165  -0.46340  -0.46106  -0.44972
  Beta  occ. eigenvalues --   -0.44241  -0.43784  -0.42496  -0.41642  -0.41183
  Beta  occ. eigenvalues --   -0.40199  -0.40034  -0.38661  -0.37653  -0.36315
  Beta  occ. eigenvalues --   -0.36133  -0.35726  -0.35693  -0.34501  -0.33585
  Beta  occ. eigenvalues --   -0.32621  -0.31772  -0.28231  -0.26714  -0.26014
  Beta virt. eigenvalues --   -0.05455  -0.03966  -0.02411   0.00487   0.01080
  Beta virt. eigenvalues --    0.02656   0.03433   0.03720   0.04632   0.04915
  Beta virt. eigenvalues --    0.05020   0.05467   0.05840   0.06184   0.06314

 Mulliken charges and spin densities:
               1          2
     1  O   -0.516254   0.484545
     2  N   -0.018890   0.497053
     3  C    0.199501  -0.036061
     4  C   -0.218109  -0.000113
     5  C    0.102834   0.003214
     6  C   -0.417809  -0.000236
     7  S   -0.019370   0.000314
     8  C    0.204425  -0.034197
     9  C   -0.310180   0.024686
    10  C   -0.345109   0.020536
    11  C   -0.342128   0.021001
    12  C   -0.320144   0.025427
    13  H    0.152989  -0.000718
    14  H    0.203528   0.000086
    15  H    0.165328   0.000017
    16  H    0.125892  -0.001095
    17  H    0.108763   0.000600
    18  H    0.146079  -0.001311
    19  H    0.146795  -0.001218
    20  H    0.108600   0.001796
    21  H    0.119236  -0.001261
    22  H    0.118424  -0.001383
    23  H    0.120813   0.001525
    24  H    0.142197  -0.001164
    25  H    0.143877  -0.001266
    26  H    0.114648   0.000552
    27  H    0.124472  -0.001206
    28  S    0.890182  -0.000083
    29  O   -0.511920  -0.000003
    30  O   -0.568541  -0.000029
    31  C   -0.395606  -0.000012
    32  H    0.176832   0.000001
    33  H    0.186257  -0.000000
    34  H    0.182390   0.000001
 Sum of Mulliken charges =  -0.00000   1.00000

 Dipole moment (field-independent basis, Debye):
    X=              4.1536    Y=              1.8389    Z=             -2.2731  Tot=              5.0795
 Quadrupole moment (field-independent basis, Debye-Ang):
   XX=           -107.0243   YY=           -109.0335   ZZ=           -116.4573
   XY=              5.2372   XZ=              7.1979   YZ=             -0.6319

 Normal termination of Gaussian 16 at Wed Jun 12 15:31:54 2019.
