 Gaussian 16, Revision B.01,
 Gaussian 16:  AM64L-G16RevB.01 20-Dec-2017

 -----------------
 #p gen 6d pbe1pbe
 -----------------

 ------------------
 start preoptimized
 ------------------
 Symbolic Z-matrix:
 Charge =  0 Multiplicity = 2

                         Standard orientation:
 ---------------------------------------------------------------------
 Center     Atomic      Atomic             Coordinates (Angstroms)
 Number     Number       Type             X           Y           Z
 ---------------------------------------------------------------------
      1          8           0       -3.665168    0.172584    1.046909
      2          7           0       -2.645580    0.051801    0.301757
      3          6           0       -2.173779   -1.262097   -0.179123
      4          6           0       -0.860250   -0.862608   -0.781151
      5          6           0       -0.592652    0.441089   -0.648484
      6          6           0        0.615975    1.120628   -1.190690
      7         16           0        1.950846    1.447347    0.040550
      8          6           0       -1.700030    1.169773    0.086628
      9          6           0       -1.286164    1.746220    1.442439
     10          6           0       -2.375770    2.246907   -0.769510
     11          6           0       -3.149960   -1.820399   -1.218214
     12          6           0       -2.031459   -2.222943    1.006005
     13          1           0       -0.204856   -1.578210   -1.271917
     14          1           0        1.073397    0.534278   -1.989034
     15          1           0        0.392586    2.120194   -1.579609
     16          1           0       -0.756917    1.000857    2.041087
     17          1           0       -0.632605    2.615576    1.313085
     18          1           0       -2.187278    2.057749    1.979146
     19          1           0       -3.289433    2.584402   -0.266553
     20          1           0       -1.719447    3.114482   -0.902164
     21          1           0       -2.645832    1.854914   -1.754736
     22          1           0       -3.240227   -1.143377   -2.076323
     23          1           0       -2.803571   -2.797620   -1.578816
     24          1           0       -4.138453   -1.943961   -0.764377
     25          1           0       -3.003760   -2.330831    1.498399
     26          1           0       -1.696368   -3.206410    0.656998
     27          1           0       -1.305599   -1.848117    1.731641
     28         16           0        2.751835   -0.535673    0.112194
     29          8           0        2.319684   -1.214291    1.353153
     30          8           0        2.497905   -1.171839   -1.203013
     31          6           0        4.508943   -0.195152    0.249584
     32          1           0        4.668235    0.415614    1.142312
     33          1           0        4.984865   -1.172503    0.360890
     34          1           0        4.832909    0.313454   -0.657541
 ---------------------------------------------------------------------

 SCF Done:  E(UPBE1PBE) =  -1467.54830866     A.U. after   16 cycles

 The electronic state is 2-A.
 Alpha  occ. eigenvalues --  -89.28800 -89.08190 -19.24750 -19.24219 -19.22652
 Alpha  occ. eigenvalues --  -14.48519 -10.29728 -10.29699 -10.29125 -10.28722
 Alpha  occ. eigenvalues --  -10.26125 -10.24855 -10.23334 -10.22868 -10.22554
 Alpha  occ. eigenvalues --  -10.22309  -8.22120  -8.04432  -6.15842  -6.15798
 Alpha  occ. eigenvalues --   -6.15684  -5.98273  -5.97897  -5.97173  -1.14724
 Alpha  occ. eigenvalues --   -1.13395  -1.04484  -0.93279  -0.85923  -0.84025
 Alpha  occ. eigenvalues --   -0.82242  -0.77236  -0.74917  -0.72102  -0.71230
 Alpha  occ. eigenvalues --   -0.70588  -0.64468  -0.62453  -0.58961  -0.56425
 Alpha  occ. eigenvalues --   -0.53160  -0.51830  -0.51307  -0.50749  -0.50166
 Alpha  occ. eigenvalues --   -0.48511  -0.47399  -0.46359  -0.46174  -0.45122
 Alpha  occ. eigenvalues --   -0.44648  -0.43948  -0.42776  -0.42427  -0.41659
 Alpha  occ. eigenvalues --   -0.40500  -0.40096  -0.39022  -0.38853  -0.36498
 Alpha  occ. eigenvalues --   -0.36358  -0.36190  -0.35748  -0.35656  -0.34534
 Alpha  occ. eigenvalues --   -0.33588  -0.31777  -0.28313  -0.27237  -0.26895
 Alpha  occ. eigenvalues --   -0.20238
 Alpha virt. eigenvalues --   -0.05452  -0.02447   0.00472   0.01074   0.02634
 Alpha virt. eigenvalues --    0.03407   0.03687   0.04589   0.04821   0.04989
 Alpha virt. eigenvalues --    0.05445   0.05801   0.06158   0.06289   0.06850

  Beta  occ. eigenvalues --  -89.28800 -89.08190 -19.24751 -19.24219 -19.21217
  Beta  occ. eigenvalues --  -14.47333 -10.29730 -10.29699 -10.29188 -10.28784
  Beta  occ. eigenvalues --  -10.26123 -10.24852 -10.23283 -10.22816 -10.22508
  Beta  occ. eigenvalues --  -10.22261  -8.22120  -8.04432  -6.15842  -6.15798
  Beta  occ. eigenvalues --   -6.15684  -5.98273  -5.97897  -5.97173  -1.14724
  Beta  occ. eigenvalues --   -1.10763  -1.04484  -0.92321  -0.85730  -0.83921
  Beta  occ. eigenvalues --   -0.82109  -0.77037  -0.73849  -0.71851  -0.71101
  Beta  occ. eigenvalues --   -0.70137  -0.64415  -0.62325  -0.58582  -0.55917
  Beta  occ. eigenvalues --   -0.53069  -0.51824  -0.51017  -0.50414  -0.48338
  Beta  occ. eigenvalues --   -0.47515  -0.47171  -0.46341  -0.46109  -0.44975
  Beta  occ. eigenvalues --   -0.44252  -0.43793  -0.42500  -0.41645  -0.41189
  Beta  occ. eigenvalues --   -0.40201  -0.40034  -0.38691  -0.37659  -0.36318
  Beta  occ. eigenvalues --   -0.36131  -0.35724  -0.35694  -0.34506  -0.33585
  Beta  occ. eigenvalues --   -0.32665  -0.31772  -0.28233  -0.26717  -0.26008
  Beta virt. eigenvalues --   -0.05453  -0.03895  -0.02412   0.00485   0.01079
  Beta virt. eigenvalues --    0.02656   0.03435   0.03724   0.04629   0.04912
  Beta virt. eigenvalues --    0.05020   0.05469   0.05843   0.06186   0.06314

 Mulliken charges and spin densities:
               1          2
     1  O   -0.517534   0.483692
     2  N   -0.016345   0.498634
     3  C    0.200521  -0.036609
     4  C   -0.219302  -0.000139
     5  C    0.101881   0.003014
     6  C   -0.417803  -0.000274
     7  S   -0.019524   0.000345
     8  C    0.205421  -0.034736
     9  C   -0.310739   0.024701
    10  C   -0.344854   0.020837
    11  C   -0.342066   0.021247
    12  C   -0.320623   0.025468
    13  H    0.152944  -0.000773
    14  H    0.203426   0.000069
    15  H    0.165344   0.000024
    16  H    0.125948  -0.001118
    17  H    0.108847   0.000688
    18  H    0.145758  -0.001312
    19  H    0.146983  -0.001225
    20  H    0.108566   0.001772
    21  H    0.119133  -0.001261
    22  H    0.118300  -0.001388
    23  H    0.120743   0.001488
    24  H    0.142415  -0.001170
    25  H    0.143490  -0.001267
    26  H    0.114799   0.000648
    27  H    0.124642  -0.001234
    28  S    0.890262  -0.000082
    29  O   -0.511891  -0.000001
    30  O   -0.568661  -0.000026
    31  C   -0.395589  -0.000012
    32  H    0.176861   0.000001
    33  H    0.186250   0.000000
    34  H    0.182398   0.000001
 Sum of Mulliken charges =  -0.00000   1.00000

 Dipole moment (field-independent basis, Debye):
    X=              4.1584    Y=              1.8395    Z=             -2.2616  Tot=              5.0784
 Quadrupole moment (field-independent basis, Debye-Ang):
   XX=           -107.0924   YY=           -109.0330   ZZ=           -116.4288
   XY=              5.2640   XZ=              7.1608   YZ=             -0.6324

 Normal termination of Gaussian 16 at Mon Jun 17 21:33:26 2019.
