 Gaussian 16, Revision B.01,
 Gaussian 16:  AM64L-G16RevB.01 20-Dec-2017

 -----------------
 #p gen 6d pbe1pbe
 -----------------

 ------------------
 start preoptimized
 ------------------
 Symbolic Z-matrix:
 Charge =  0 Multiplicity = 2

                         Standard orientation:
 ---------------------------------------------------------------------
 Center     Atomic      Atomic             Coordinates (Angstroms)
 Number     Number       Type             X           Y           Z
 ---------------------------------------------------------------------
      1          8           0       -3.663371    0.172063    1.050071
      2          7           0       -2.646303    0.052236    0.300110
      3          6           0       -2.174071   -1.261885   -0.179679
      4          6           0       -0.859851   -0.862786   -0.780457
      5          6           0       -0.592351    0.440984   -0.648307
      6          6           0        0.616289    1.120541   -1.190463
      7         16           0        1.951067    1.447391    0.040825
      8          6           0       -1.700137    1.169933    0.086025
      9          6           0       -1.287158    1.745886    1.442300
     10          6           0       -2.374697    2.247561   -0.770530
     11          6           0       -3.148794   -1.820458   -1.220088
     12          6           0       -2.033753   -2.222191    1.006217
     13          1           0       -0.204172   -1.578524   -1.270688
     14          1           0        1.073740    0.534187   -1.988688
     15          1           0        0.392826    2.120044   -1.579462
     16          1           0       -0.758737    1.000154    2.041166
     17          1           0       -0.633114    2.614991    1.313550
     18          1           0       -2.188597    2.057572    1.978329
     19          1           0       -3.288778    2.585315   -0.268351
     20          1           0       -1.717987    3.114983   -0.902380
     21          1           0       -2.643992    1.855933   -1.756098
     22          1           0       -3.237716   -1.143693   -2.078674
     23          1           0       -2.801857   -2.797896   -1.579897
     24          1           0       -4.138039   -1.943851   -0.767758
     25          1           0       -3.006907   -2.329313    1.497208
     26          1           0       -1.698516   -3.205974    0.658101
     27          1           0       -1.308835   -1.847358    1.732739
     28         16           0        2.751677   -0.535801    0.112361
     29          8           0        2.319243   -1.214435    1.353248
     30          8           0        2.497724   -1.171687   -1.202898
     31          6           0        4.508900   -0.195838    0.249842
     32          1           0        4.668355    0.414775    1.142712
     33          1           0        4.984525   -1.173334    0.361052
     34          1           0        4.833000    0.312880   -0.657129
 ---------------------------------------------------------------------

 SCF Done:  E(UPBE1PBE) =  -1467.54826101     A.U. after   16 cycles

 The electronic state is 2-A.
 Alpha  occ. eigenvalues --  -89.28800 -89.08189 -19.24751 -19.24218 -19.22658
 Alpha  occ. eigenvalues --  -14.48520 -10.29727 -10.29699 -10.29127 -10.28724
 Alpha  occ. eigenvalues --  -10.26125 -10.24855 -10.23338 -10.22874 -10.22551
 Alpha  occ. eigenvalues --  -10.22307  -8.22120  -8.04432  -6.15842  -6.15798
 Alpha  occ. eigenvalues --   -6.15684  -5.98272  -5.97897  -5.97173  -1.14725
 Alpha  occ. eigenvalues --   -1.13358  -1.04485  -0.93275  -0.85922  -0.84023
 Alpha  occ. eigenvalues --   -0.82241  -0.77236  -0.74918  -0.72101  -0.71229
 Alpha  occ. eigenvalues --   -0.70589  -0.64467  -0.62452  -0.58957  -0.56426
 Alpha  occ. eigenvalues --   -0.53161  -0.51830  -0.51307  -0.50749  -0.50154
 Alpha  occ. eigenvalues --   -0.48511  -0.47397  -0.46358  -0.46173  -0.45119
 Alpha  occ. eigenvalues --   -0.44646  -0.43945  -0.42775  -0.42424  -0.41657
 Alpha  occ. eigenvalues --   -0.40499  -0.40098  -0.39012  -0.38847  -0.36497
 Alpha  occ. eigenvalues --   -0.36357  -0.36191  -0.35747  -0.35656  -0.34532
 Alpha  occ. eigenvalues --   -0.33588  -0.31777  -0.28312  -0.27241  -0.26895
 Alpha  occ. eigenvalues --   -0.20262
 Alpha virt. eigenvalues --   -0.05453  -0.02447   0.00473   0.01074   0.02635
 Alpha virt. eigenvalues --    0.03406   0.03685   0.04590   0.04823   0.04989
 Alpha virt. eigenvalues --    0.05444   0.05800   0.06158   0.06289   0.06850

  Beta  occ. eigenvalues --  -89.28800 -89.08189 -19.24751 -19.24218 -19.21223
  Beta  occ. eigenvalues --  -14.47336 -10.29728 -10.29699 -10.29189 -10.28786
  Beta  occ. eigenvalues --  -10.26123 -10.24852 -10.23286 -10.22822 -10.22504
  Beta  occ. eigenvalues --  -10.22259  -8.22120  -8.04432  -6.15842  -6.15798
  Beta  occ. eigenvalues --   -6.15684  -5.98272  -5.97897  -5.97173  -1.14725
  Beta  occ. eigenvalues --   -1.10725  -1.04485  -0.92315  -0.85729  -0.83920
  Beta  occ. eigenvalues --   -0.82108  -0.77036  -0.73850  -0.71851  -0.71100
  Beta  occ. eigenvalues --   -0.70138  -0.64414  -0.62324  -0.58578  -0.55918
  Beta  occ. eigenvalues --   -0.53070  -0.51824  -0.51017  -0.50414  -0.48337
  Beta  occ. eigenvalues --   -0.47512  -0.47169  -0.46341  -0.46108  -0.44974
  Beta  occ. eigenvalues --   -0.44248  -0.43790  -0.42499  -0.41644  -0.41187
  Beta  occ. eigenvalues --   -0.40200  -0.40034  -0.38681  -0.37657  -0.36317
  Beta  occ. eigenvalues --   -0.36132  -0.35724  -0.35694  -0.34504  -0.33585
  Beta  occ. eigenvalues --   -0.32651  -0.31772  -0.28233  -0.26716  -0.26010
  Beta virt. eigenvalues --   -0.05454  -0.03918  -0.02411   0.00486   0.01079
  Beta virt. eigenvalues --    0.02656   0.03434   0.03723   0.04630   0.04913
  Beta virt. eigenvalues --    0.05020   0.05469   0.05842   0.06186   0.06314

 Mulliken charges and spin densities:
               1          2
     1  O   -0.517120   0.483967
     2  N   -0.017160   0.498121
     3  C    0.200173  -0.036430
     4  C   -0.218905  -0.000131
     5  C    0.102199   0.003079
     6  C   -0.417806  -0.000261
     7  S   -0.019473   0.000335
     8  C    0.205083  -0.034561
     9  C   -0.310554   0.024699
    10  C   -0.344940   0.020737
    11  C   -0.342088   0.021166
    12  C   -0.320465   0.025457
    13  H    0.152959  -0.000755
    14  H    0.203460   0.000075
    15  H    0.165338   0.000022
    16  H    0.125929  -0.001110
    17  H    0.108820   0.000659
    18  H    0.145865  -0.001312
    19  H    0.146920  -0.001223
    20  H    0.108577   0.001780
    21  H    0.119167  -0.001262
    22  H    0.118342  -0.001386
    23  H    0.120767   0.001501
    24  H    0.142341  -0.001168
    25  H    0.143619  -0.001266
    26  H    0.114749   0.000616
    27  H    0.124584  -0.001225
    28  S    0.890234  -0.000082
    29  O   -0.511901  -0.000002
    30  O   -0.568621  -0.000027
    31  C   -0.395595  -0.000012
    32  H    0.176851   0.000001
    33  H    0.186253  -0.000000
    34  H    0.182395   0.000001
 Sum of Mulliken charges =  -0.00000   1.00000

 Dipole moment (field-independent basis, Debye):
    X=              4.1568    Y=              1.8393    Z=             -2.2655  Tot=              5.0788
 Quadrupole moment (field-independent basis, Debye-Ang):
   XX=           -107.0697   YY=           -109.0331   ZZ=           -116.4384
   XY=              5.2551   XZ=              7.1733   YZ=             -0.6322

 Normal termination of Gaussian 16 at Mon Jun 17 21:36:10 2019.
