 Gaussian 16, Revision B.01,
 Gaussian 16:  AM64L-G16RevB.01 20-Dec-2017

 -----------------
 #p gen 6d pbe1pbe
 -----------------

 ------------------
 start preoptimized
 ------------------
 Symbolic Z-matrix:
 Charge =  0 Multiplicity = 2

                         Standard orientation:
 ---------------------------------------------------------------------
 Center     Atomic      Atomic             Coordinates (Angstroms)
 Number     Number       Type             X           Y           Z
 ---------------------------------------------------------------------
      1          8           0       -3.759677    0.198248    0.883119
      2          7           0       -2.607497    0.029217    0.387369
      3          6           0       -2.158371   -1.273129   -0.150648
      4          6           0       -0.881227   -0.853305   -0.817425
      5          6           0       -0.608421    0.446700   -0.657430
      6          6           0        0.599457    1.125536   -1.202038
      7         16           0        1.939281    1.445095    0.026796
      8          6           0       -1.694352    1.161390    0.118454
      9          6           0       -1.234550    1.763173    1.450073
     10          6           0       -2.431383    2.212898   -0.715209
     11          6           0       -3.210091   -1.817169   -1.120999
     12          6           0       -1.911900   -2.262086    0.993710
     13          1           0       -0.240815   -1.561693   -1.336234
     14          1           0        1.055368    0.539761   -2.006863
     15          1           0        0.379867    2.128557   -1.586490
     16          1           0       -0.662437    1.037048    2.036837
     17          1           0       -0.606552    2.645591    1.289713
     18          1           0       -2.118575    2.066463    2.022068
     19          1           0       -3.323026    2.536847   -0.171756
     20          1           0       -1.795443    3.088343   -0.889289
     21          1           0       -2.741116    1.802134   -1.682566
     22          1           0       -3.370307   -1.126716   -1.953749
     23          1           0       -2.892448   -2.783185   -1.523104
     24          1           0       -4.159028   -1.949442   -0.589052
     25          1           0       -2.839260   -2.409730    1.558912
     26          1           0       -1.584691   -3.229136    0.598015
     27          1           0       -1.137276   -1.887700    1.673118
     28         16           0        2.760105   -0.528878    0.103140
     29          8           0        2.342756   -1.207091    1.347602
     30          8           0        2.507445   -1.179086   -1.209528
     31          6           0        4.511097   -0.159280    0.235888
     32          1           0        4.661829    0.459076    1.121444
     33          1           0        5.002464   -1.129007    0.351706
     34          1           0        4.827985    0.343870   -0.679069
 ---------------------------------------------------------------------

 SCF Done:  E(UPBE1PBE) =  -1467.54843473     A.U. after   16 cycles

 The electronic state is 2-A.
 Alpha  occ. eigenvalues --  -89.28823 -89.08213 -19.24729 -19.24260 -19.22623
 Alpha  occ. eigenvalues --  -14.48512 -10.29834 -10.29717 -10.29146 -10.28738
 Alpha  occ. eigenvalues --  -10.26174 -10.24909 -10.23177 -10.22740 -10.22650
 Alpha  occ. eigenvalues --  -10.22461  -8.22137  -8.04456  -6.15859  -6.15818
 Alpha  occ. eigenvalues --   -6.15702  -5.98299  -5.97918  -5.97198  -1.14666
 Alpha  occ. eigenvalues --   -1.13532  -1.04431  -0.93297  -0.85921  -0.84047
 Alpha  occ. eigenvalues --   -0.82280  -0.77269  -0.74916  -0.72047  -0.71214
 Alpha  occ. eigenvalues --   -0.70623  -0.64492  -0.62471  -0.59025  -0.56411
 Alpha  occ. eigenvalues --   -0.53121  -0.51822  -0.51304  -0.50770  -0.50212
 Alpha  occ. eigenvalues --   -0.48485  -0.47417  -0.46378  -0.46166  -0.45207
 Alpha  occ. eigenvalues --   -0.44656  -0.44022  -0.42713  -0.42387  -0.41625
 Alpha  occ. eigenvalues --   -0.40524  -0.40048  -0.39149  -0.38898  -0.36479
 Alpha  occ. eigenvalues --   -0.36399  -0.36128  -0.35734  -0.35645  -0.34600
 Alpha  occ. eigenvalues --   -0.33581  -0.31772  -0.28361  -0.27196  -0.26929
 Alpha  occ. eigenvalues --   -0.20104
 Alpha virt. eigenvalues --   -0.05430  -0.02503   0.00432   0.01048   0.02614
 Alpha virt. eigenvalues --    0.03427   0.03744   0.04537   0.04782   0.05005
 Alpha virt. eigenvalues --    0.05450   0.05831   0.06167   0.06281   0.06847

  Beta  occ. eigenvalues --  -89.28823 -89.08213 -19.24729 -19.24260 -19.21193
  Beta  occ. eigenvalues --  -14.47317 -10.29835 -10.29717 -10.29211 -10.28803
  Beta  occ. eigenvalues --  -10.26173 -10.24905 -10.23128 -10.22689 -10.22605
  Beta  occ. eigenvalues --  -10.22406  -8.22137  -8.04456  -6.15859  -6.15818
  Beta  occ. eigenvalues --   -6.15702  -5.98298  -5.97918  -5.97198  -1.14666
  Beta  occ. eigenvalues --   -1.10897  -1.04431  -0.92350  -0.85730  -0.83945
  Beta  occ. eigenvalues --   -0.82143  -0.77070  -0.73850  -0.71807  -0.71088
  Beta  occ. eigenvalues --   -0.70154  -0.64439  -0.62341  -0.58646  -0.55898
  Beta  occ. eigenvalues --   -0.53035  -0.51814  -0.51023  -0.50420  -0.48391
  Beta  occ. eigenvalues --   -0.47502  -0.47162  -0.46369  -0.46098  -0.44953
  Beta  occ. eigenvalues --   -0.44305  -0.43889  -0.42501  -0.41590  -0.41130
  Beta  occ. eigenvalues --   -0.40214  -0.40014  -0.38798  -0.37653  -0.36345
  Beta  occ. eigenvalues --   -0.36091  -0.35703  -0.35649  -0.34573  -0.33579
  Beta  occ. eigenvalues --   -0.32746  -0.31769  -0.28269  -0.26744  -0.26003
  Beta virt. eigenvalues --   -0.05432  -0.03755  -0.02457   0.00443   0.01054
  Beta virt. eigenvalues --    0.02635   0.03448   0.03783   0.04571   0.04871
  Beta virt. eigenvalues --    0.05040   0.05477   0.05877   0.06195   0.06311

 Mulliken charges and spin densities:
               1          2
     1  O   -0.517056   0.481246
     2  N   -0.026386   0.502755
     3  C    0.224986  -0.037482
     4  C   -0.235712  -0.000091
     5  C    0.087443   0.002444
     6  C   -0.416180  -0.000722
     7  S   -0.022352   0.000757
     8  C    0.227185  -0.035227
     9  C   -0.318589   0.021962
    10  C   -0.338115   0.024190
    11  C   -0.338221   0.023305
    12  C   -0.327347   0.022892
    13  H    0.152534  -0.000708
    14  H    0.201537  -0.000107
    15  H    0.165739   0.000118
    16  H    0.127666  -0.001374
    17  H    0.109896   0.001829
    18  H    0.140708  -0.001297
    19  H    0.151393  -0.001290
    20  H    0.107628   0.000756
    21  H    0.117565  -0.001088
    22  H    0.115890  -0.001150
    23  H    0.118840   0.000363
    24  H    0.147149  -0.001219
    25  H    0.137365  -0.001278
    26  H    0.117127   0.001873
    27  H    0.128469  -0.001452
    28  S    0.891360  -0.000074
    29  O   -0.510769   0.000025
    30  O   -0.570690   0.000048
    31  C   -0.395135  -0.000004
    32  H    0.177379  -0.000002
    33  H    0.186154   0.000004
    34  H    0.182538  -0.000001
 Sum of Mulliken charges =  -0.00000   1.00000

 Dipole moment (field-independent basis, Debye):
    X=              4.2486    Y=              1.8567    Z=             -2.0513  Tot=              5.0701
 Quadrupole moment (field-independent basis, Debye-Ang):
   XX=           -108.2330   YY=           -109.0633   ZZ=           -115.9326
   XY=              5.7089   XZ=              6.3787   YZ=             -0.6195

 Normal termination of Gaussian 16 at Mon Jun 17 21:28:03 2019.
