 Gaussian 16, Revision B.01,
 Gaussian 16:  AM64L-G16RevB.01 20-Dec-2017

 -----------------
 #p gen 6d pbe1pbe
 -----------------

 ------------------
 start preoptimized
 ------------------
 Symbolic Z-matrix:
 Charge =  0 Multiplicity = 2

                         Standard orientation:
 ---------------------------------------------------------------------
 Center     Atomic      Atomic             Coordinates (Angstroms)
 Number     Number       Type             X           Y           Z
 ---------------------------------------------------------------------
      1          8           0       -3.695838    0.181276    0.993219
      2          7           0       -2.633240    0.044412    0.329755
      3          6           0       -2.168789   -1.265708   -0.169720
      4          6           0       -0.867056   -0.859580   -0.792968
      5          6           0       -0.597776    0.442898   -0.651461
      6          6           0        0.610616    1.122143   -1.194494
      7         16           0        1.947088    1.446596    0.035943
      8          6           0       -1.698195    1.167045    0.096933
      9          6           0       -1.269265    1.751841    1.444852
     10          6           0       -2.393998    2.235792   -0.752023
     11          6           0       -3.169723   -1.819365   -1.186380
     12          6           0       -1.992427   -2.235735    1.002260
     13          1           0       -0.216529   -1.572846   -1.292854
     14          1           0        1.067550    0.535914   -1.994908
     15          1           0        0.388486    2.122802   -1.582025
     16          1           0       -0.725990    1.012772    2.039731
     17          1           0       -0.624004    2.625482    1.305276
     18          1           0       -2.164837    2.060703    1.993079
     19          1           0       -3.300518    2.568876   -0.235842
     20          1           0       -1.744273    3.105953   -0.898302
     21          1           0       -2.677063    1.837620   -1.731429
     22          1           0       -3.282856   -1.137962   -2.036324
     23          1           0       -2.832685   -2.792910   -1.560501
     24          1           0       -4.145385   -1.945792   -0.706965
     25          1           0       -2.950161   -2.356638    1.518492
     26          1           0       -1.659854   -3.213841    0.638066
     27          1           0       -1.250578   -1.861037    1.712813
     28         16           0        2.754533   -0.533489    0.109308
     29          8           0        2.327199   -1.211881    1.351474
     30          8           0        2.501007   -1.174350   -1.205022
     31          6           0        4.509671   -0.183472    0.245172
     32          1           0        4.666179    0.429857    1.135499
     33          1           0        4.990627   -1.158343    0.358052
     34          1           0        4.831339    0.323280   -0.664558
 ---------------------------------------------------------------------

 SCF Done:  E(UPBE1PBE) =  -1467.54876773     A.U. after   16 cycles

 The electronic state is 2-A.
 Alpha  occ. eigenvalues --  -89.28806 -89.08195 -19.24742 -19.24231 -19.22573
 Alpha  occ. eigenvalues --  -14.48494 -10.29760 -10.29703 -10.29111 -10.28697
 Alpha  occ. eigenvalues --  -10.26132 -10.24861 -10.23277 -10.22779 -10.22611
 Alpha  occ. eigenvalues --  -10.22342  -8.22124  -8.04438  -6.15846  -6.15803
 Alpha  occ. eigenvalues --   -6.15688  -5.98279  -5.97902  -5.97179  -1.14703
 Alpha  occ. eigenvalues --   -1.13836  -1.04466  -0.93326  -0.85927  -0.84046
 Alpha  occ. eigenvalues --   -0.82252  -0.77242  -0.74902  -0.72100  -0.71242
 Alpha  occ. eigenvalues --   -0.70588  -0.64485  -0.62467  -0.59010  -0.56412
 Alpha  occ. eigenvalues --   -0.53148  -0.51826  -0.51299  -0.50751  -0.50307
 Alpha  occ. eigenvalues --   -0.48518  -0.47427  -0.46364  -0.46184  -0.45160
 Alpha  occ. eigenvalues --   -0.44661  -0.43988  -0.42785  -0.42465  -0.41677
 Alpha  occ. eigenvalues --   -0.40522  -0.40069  -0.39151  -0.38921  -0.36506
 Alpha  occ. eigenvalues --   -0.36377  -0.36170  -0.35750  -0.35656  -0.34558
 Alpha  occ. eigenvalues --   -0.33585  -0.31774  -0.28328  -0.27194  -0.26894
 Alpha  occ. eigenvalues --   -0.19950
 Alpha virt. eigenvalues --   -0.05443  -0.02460   0.00462   0.01067   0.02629
 Alpha virt. eigenvalues --    0.03418   0.03709   0.04573   0.04805   0.04992
 Alpha virt. eigenvalues --    0.05453   0.05812   0.06165   0.06287   0.06855

  Beta  occ. eigenvalues --  -89.28806 -89.08195 -19.24742 -19.24231 -19.21147
  Beta  occ. eigenvalues --  -14.47299 -10.29762 -10.29703 -10.29180 -10.28765
  Beta  occ. eigenvalues --  -10.26131 -10.24858 -10.23225 -10.22728 -10.22562
  Beta  occ. eigenvalues --  -10.22290  -8.22124  -8.04438  -6.15846  -6.15803
  Beta  occ. eigenvalues --   -6.15688  -5.98279  -5.97901  -5.97179  -1.14703
  Beta  occ. eigenvalues --   -1.11207  -1.04466  -0.92385  -0.85739  -0.83943
  Beta  occ. eigenvalues --   -0.82121  -0.77052  -0.73833  -0.71847  -0.71112
  Beta  occ. eigenvalues --   -0.70124  -0.64432  -0.62339  -0.58635  -0.55902
  Beta  occ. eigenvalues --   -0.53058  -0.51819  -0.51017  -0.50415  -0.48358
  Beta  occ. eigenvalues --   -0.47544  -0.47193  -0.46349  -0.46119  -0.44986
  Beta  occ. eigenvalues --   -0.44298  -0.43835  -0.42515  -0.41651  -0.41202
  Beta  occ. eigenvalues --   -0.40212  -0.40023  -0.38815  -0.37684  -0.36332
  Beta  occ. eigenvalues --   -0.36118  -0.35711  -0.35696  -0.34531  -0.33582
  Beta  occ. eigenvalues --   -0.32836  -0.31770  -0.28246  -0.26728  -0.25985
  Beta virt. eigenvalues --   -0.05444  -0.03618  -0.02416   0.00474   0.01073
  Beta virt. eigenvalues --    0.02652   0.03444   0.03748   0.04613   0.04896
  Beta virt. eigenvalues --    0.05024   0.05479   0.05857   0.06194   0.06313

 Mulliken charges and spin densities:
               1          2
     1  O   -0.522434   0.480393
     2  N   -0.008046   0.505026
     3  C    0.207545  -0.038867
     4  C   -0.225930  -0.000225
     5  C    0.096446   0.002218
     6  C   -0.417639  -0.000475
     7  S   -0.020377   0.000522
     8  C    0.211952  -0.036926
     9  C   -0.313658   0.024396
    10  C   -0.343203   0.022403
    11  C   -0.341462   0.022453
    12  C   -0.323133   0.025264
    13  H    0.152739  -0.000978
    14  H    0.202835  -0.000019
    15  H    0.165440   0.000062
    16  H    0.126385  -0.001232
    17  H    0.109261   0.001156
    18  H    0.143944  -0.001314
    19  H    0.148214  -0.001256
    20  H    0.108338   0.001559
    21  H    0.118534  -0.001237
    22  H    0.117494  -0.001374
    23  H    0.120276   0.001209
    24  H    0.143785  -0.001196
    25  H    0.141310  -0.001275
    26  H    0.115606   0.001163
    27  H    0.125766  -0.001367
    28  S    0.890824  -0.000078
    29  O   -0.511697   0.000010
    30  O   -0.569331  -0.000005
    31  C   -0.395468  -0.000011
    32  H    0.177029   0.000000
    33  H    0.186216   0.000002
    34  H    0.182441   0.000000
 Sum of Mulliken charges =  -0.00000   1.00000

 Dipole moment (field-independent basis, Debye):
    X=              4.1863    Y=              1.8434    Z=             -2.1943  Tot=              5.0733
 Quadrupole moment (field-independent basis, Debye-Ang):
   XX=           -107.4788   YY=           -109.0368   ZZ=           -116.2629
   XY=              5.4146   XZ=              6.9300   YZ=             -0.6327

 Normal termination of Gaussian 16 at Wed Jun 12 15:25:54 2019.
