 Gaussian 16, Revision B.01,
 Gaussian 16:  AM64L-G16RevB.01 20-Dec-2017

 -----------------
 #p gen 6d pbe1pbe
 -----------------

 ------------------
 start preoptimized
 ------------------
 Symbolic Z-matrix:
 Charge =  0 Multiplicity = 2

                         Standard orientation:
 ---------------------------------------------------------------------
 Center     Atomic      Atomic             Coordinates (Angstroms)
 Number     Number       Type             X           Y           Z
 ---------------------------------------------------------------------
      1          8           0       -3.752334    0.196368    0.895671
      2          7           0       -2.610462    0.030953    0.380787
      3          6           0       -2.159572   -1.272281   -0.152809
      4          6           0       -0.879597   -0.854024   -0.814622
      5          6           0       -0.607198    0.446261   -0.656759
      6          6           0        0.600741    1.125131   -1.201195
      7         16           0        1.940178    1.445263    0.027820
      8          6           0       -1.694796    1.162039    0.115974
      9          6           0       -1.238513    1.761893    1.449461
     10          6           0       -2.427120    2.215516   -0.719470
     11          6           0       -3.205499   -1.817422   -1.128462
     12          6           0       -1.921114   -2.259075    0.994743
     13          1           0       -0.238022   -1.562975   -1.331260
     14          1           0        1.056770    0.539290   -2.005506
     15          1           0        0.380864    2.127875   -1.586012
     16          1           0       -0.669692    1.034289    2.037175
     17          1           0       -0.608530    2.643311    1.291458
     18          1           0       -2.123866    2.065825    2.018736
     19          1           0       -3.320475    2.540513   -0.179136
     20          1           0       -1.789591    3.090360   -0.890388
     21          1           0       -2.733813    1.806184   -1.688208
     22          1           0       -3.360334   -1.128004   -1.963203
     23          1           0       -2.885630   -2.784296   -1.527359
     24          1           0       -4.157511   -1.949030   -0.602510
     25          1           0       -2.851972   -2.403667    1.554357
     26          1           0       -1.593280   -3.227390    0.602663
     27          1           0       -1.150226   -1.884651    1.677718
     28         16           0        2.759468   -0.529413    0.103859
     29          8           0        2.340972   -1.207628    1.348072
     30          8           0        2.506706   -1.178573   -1.208989
     31          6           0        4.510939   -0.162055    0.236962
     32          1           0        4.662334    0.455743    1.123052
     33          1           0        5.001114   -1.132372    0.352464
     34          1           0        4.828377    0.341493   -0.677406
 ---------------------------------------------------------------------

 SCF Done:  E(UPBE1PBE) =  -1467.54856249     A.U. after   16 cycles

 The electronic state is 2-A.
 Alpha  occ. eigenvalues --  -89.28820 -89.08211 -19.24730 -19.24256 -19.22602
 Alpha  occ. eigenvalues --  -14.48505 -10.29825 -10.29715 -10.29138 -10.28727
 Alpha  occ. eigenvalues --  -10.26168 -10.24901 -10.23187 -10.22725 -10.22661
 Alpha  occ. eigenvalues --  -10.22443  -8.22136  -8.04454  -6.15857  -6.15816
 Alpha  occ. eigenvalues --   -6.15700  -5.98296  -5.97916  -5.97195  -1.14670
 Alpha  occ. eigenvalues --   -1.13649  -1.04435  -0.93308  -0.85923  -0.84050
 Alpha  occ. eigenvalues --   -0.82276  -0.77265  -0.74912  -0.72056  -0.71221
 Alpha  occ. eigenvalues --   -0.70616  -0.64493  -0.62472  -0.59029  -0.56409
 Alpha  occ. eigenvalues --   -0.53124  -0.51822  -0.51302  -0.50767  -0.50248
 Alpha  occ. eigenvalues --   -0.48492  -0.47423  -0.46376  -0.46170  -0.45204
 Alpha  occ. eigenvalues --   -0.44658  -0.44021  -0.42725  -0.42408  -0.41638
 Alpha  occ. eigenvalues --   -0.40527  -0.40046  -0.39170  -0.38912  -0.36485
 Alpha  occ. eigenvalues --   -0.36397  -0.36133  -0.35737  -0.35647  -0.34596
 Alpha  occ. eigenvalues --   -0.33581  -0.31772  -0.28357  -0.27190  -0.26923
 Alpha  occ. eigenvalues --   -0.20035
 Alpha virt. eigenvalues --   -0.05431  -0.02497   0.00437   0.01051   0.02616
 Alpha virt. eigenvalues --    0.03427   0.03742   0.04541   0.04783   0.05003
 Alpha virt. eigenvalues --    0.05452   0.05830   0.06168   0.06282   0.06850

  Beta  occ. eigenvalues --  -89.28820 -89.08210 -19.24730 -19.24256 -19.21175
  Beta  occ. eigenvalues --  -14.47309 -10.29827 -10.29715 -10.29205 -10.28793
  Beta  occ. eigenvalues --  -10.26166 -10.24898 -10.23138 -10.22673 -10.22615
  Beta  occ. eigenvalues --  -10.22389  -8.22136  -8.04453  -6.15857  -6.15816
  Beta  occ. eigenvalues --   -6.15700  -5.98296  -5.97915  -5.97195  -1.14670
  Beta  occ. eigenvalues --   -1.11016  -1.04435  -0.92365  -0.85732  -0.83948
  Beta  occ. eigenvalues --   -0.82141  -0.77069  -0.73845  -0.71814  -0.71094
  Beta  occ. eigenvalues --   -0.70146  -0.64440  -0.62343  -0.58651  -0.55896
  Beta  occ. eigenvalues --   -0.53037  -0.51814  -0.51022  -0.50419  -0.48388
  Beta  occ. eigenvalues --   -0.47513  -0.47171  -0.46366  -0.46103  -0.44961
  Beta  occ. eigenvalues --   -0.44310  -0.43885  -0.42505  -0.41602  -0.41145
  Beta  occ. eigenvalues --   -0.40216  -0.40012  -0.38820  -0.37662  -0.36344
  Beta  occ. eigenvalues --   -0.36094  -0.35703  -0.35657  -0.34568  -0.33580
  Beta  occ. eigenvalues --   -0.32787  -0.31769  -0.28267  -0.26742  -0.25996
  Beta virt. eigenvalues --   -0.05433  -0.03691  -0.02450   0.00448   0.01056
  Beta virt. eigenvalues --    0.02637   0.03449   0.03781   0.04576   0.04873
  Beta virt. eigenvalues --    0.05037   0.05479   0.05875   0.06196   0.06311

 Mulliken charges and spin densities:
               1          2
     1  O   -0.518720   0.480626
     2  N   -0.022006   0.504098
     3  C    0.223056  -0.038063
     4  C   -0.235024  -0.000132
     5  C    0.088208   0.002297
     6  C   -0.416445  -0.000710
     7  S   -0.022097   0.000744
     8  C    0.225466  -0.035864
     9  C   -0.318085   0.022331
    10  C   -0.338830   0.024120
    11  C   -0.338744   0.023349
    12  C   -0.326923   0.023258
    13  H    0.152547  -0.000784
    14  H    0.201688  -0.000105
    15  H    0.165695   0.000114
    16  H    0.127510  -0.001365
    17  H    0.109831   0.001778
    18  H    0.141019  -0.001301
    19  H    0.151006  -0.001288
    20  H    0.107729   0.000866
    21  H    0.117635  -0.001110
    22  H    0.116026  -0.001185
    23  H    0.119040   0.000471
    24  H    0.146746  -0.001217
    25  H    0.137756  -0.001280
    26  H    0.116958   0.001823
    27  H    0.128161  -0.001457
    28  S    0.891403  -0.000074
    29  O   -0.510924   0.000024
    30  O   -0.570533   0.000042
    31  C   -0.395173  -0.000005
    32  H    0.177339  -0.000002
    33  H    0.186161   0.000003
    34  H    0.182526  -0.000001
 Sum of Mulliken charges =  -0.00000   1.00000

 Dipole moment (field-independent basis, Debye):
    X=              4.2413    Y=              1.8547    Z=             -2.0676  Tot=              5.0699
 Quadrupole moment (field-independent basis, Debye-Ang):
   XX=           -108.1524   YY=           -109.0592   ZZ=           -115.9675
   XY=              5.6771   XZ=              6.4448   YZ=             -0.6219

 Normal termination of Gaussian 16 at Mon Jun 17 21:22:35 2019.
