 Gaussian 16, Revision B.01,
 Gaussian 16:  AM64L-G16RevB.01 20-Dec-2017

 -----------------
 #p gen 6d pbe1pbe
 -----------------

 ------------------
 start preoptimized
 ------------------
 Symbolic Z-matrix:
 Charge =  0 Multiplicity = 2

                         Standard orientation:
 ---------------------------------------------------------------------
 Center     Atomic      Atomic             Coordinates (Angstroms)
 Number     Number       Type             X           Y           Z
 ---------------------------------------------------------------------
      1          8           0       -3.675967    0.175687    1.027944
      2          7           0       -2.641237    0.049192    0.311639
      3          6           0       -2.172023   -1.263372   -0.175793
      4          6           0       -0.862646   -0.861541   -0.785316
      5          6           0       -0.594457    0.441725   -0.649541
      6          6           0        0.614088    1.121152   -1.192043
      7         16           0        1.949522    1.447080    0.038911
      8          6           0       -1.699384    1.168812    0.090253
      9          6           0       -1.280196    1.748213    1.443281
     10          6           0       -2.382209    2.242984   -0.763369
     11          6           0       -3.156947   -1.820037   -1.206972
     12          6           0       -2.017689   -2.227457    1.004714
     13          1           0       -0.208967   -1.576321   -1.279296
     14          1           0        1.071338    0.534837   -1.991113
     15          1           0        0.391146    2.121100   -1.580481
     16          1           0       -0.745997    1.005073    2.040612
     17          1           0       -0.629560    2.619084    1.310310
     18          1           0       -2.179360    2.058804    1.984052
     19          1           0       -3.293356    2.578924   -0.255746
     20          1           0       -1.728206    3.111473   -0.900841
     21          1           0       -2.656863    1.848804   -1.746543
     22          1           0       -3.255284   -1.141471   -2.062213
     23          1           0       -2.813853   -2.795960   -1.572339
     24          1           0       -4.140922   -1.944613   -0.744103
     25          1           0       -2.984863   -2.339940    1.505525
     26          1           0       -1.683480   -3.209032    0.650356
     27          1           0       -1.286181   -1.852673    1.725030
     28         16           0        2.752787   -0.534907    0.111184
     29          8           0        2.322333   -1.213434    1.352576
     30          8           0        2.498998   -1.172742   -1.203708
     31          6           0        4.509203   -0.191035    0.248034
     32          1           0        4.667514    0.420645    1.139908
     33          1           0        4.986899   -1.167512    0.359907
     34          1           0        4.832359    0.316908   -0.660015
 ---------------------------------------------------------------------

 SCF Done:  E(UPBE1PBE) =  -1467.54853899     A.U. after   16 cycles

 The electronic state is 2-A.
 Alpha  occ. eigenvalues --  -89.28802 -89.08191 -19.24747 -19.24223 -19.22616
 Alpha  occ. eigenvalues --  -14.48508 -10.29739 -10.29700 -10.29118 -10.28710
 Alpha  occ. eigenvalues --  -10.26127 -10.24856 -10.23313 -10.22835 -10.22574
 Alpha  occ. eigenvalues --  -10.22319  -8.22121  -8.04434  -6.15844  -6.15800
 Alpha  occ. eigenvalues --   -6.15685  -5.98275  -5.97899  -5.97175  -1.14716
 Alpha  occ. eigenvalues --   -1.13593  -1.04478  -0.93300  -0.85925  -0.84034
 Alpha  occ. eigenvalues --   -0.82245  -0.77238  -0.74910  -0.72103  -0.71236
 Alpha  occ. eigenvalues --   -0.70587  -0.64475  -0.62459  -0.58981  -0.56420
 Alpha  occ. eigenvalues --   -0.53156  -0.51829  -0.51304  -0.50750  -0.50228
 Alpha  occ. eigenvalues --   -0.48515  -0.47411  -0.46361  -0.46179  -0.45136
 Alpha  occ. eigenvalues --   -0.44654  -0.43964  -0.42783  -0.42446  -0.41669
 Alpha  occ. eigenvalues --   -0.40510  -0.40087  -0.39075  -0.38883  -0.36502
 Alpha  occ. eigenvalues --   -0.36365  -0.36183  -0.35749  -0.35656  -0.34543
 Alpha  occ. eigenvalues --   -0.33587  -0.31776  -0.28318  -0.27219  -0.26893
 Alpha  occ. eigenvalues --   -0.20110
 Alpha virt. eigenvalues --   -0.05448  -0.02451   0.00469   0.01072   0.02633
 Alpha virt. eigenvalues --    0.03412   0.03694   0.04583   0.04815   0.04990
 Alpha virt. eigenvalues --    0.05448   0.05805   0.06161   0.06288   0.06853

  Beta  occ. eigenvalues --  -89.28802 -89.08191 -19.24747 -19.24223 -19.21185
  Beta  occ. eigenvalues --  -14.47318 -10.29741 -10.29700 -10.29183 -10.28774
  Beta  occ. eigenvalues --  -10.26125 -10.24853 -10.23262 -10.22783 -10.22526
  Beta  occ. eigenvalues --  -10.22269  -8.22121  -8.04434  -6.15844  -6.15800
  Beta  occ. eigenvalues --   -6.15685  -5.98274  -5.97898  -5.97175  -1.14716
  Beta  occ. eigenvalues --   -1.10962  -1.04478  -0.92350  -0.85734  -0.83931
  Beta  occ. eigenvalues --   -0.82113  -0.77043  -0.73842  -0.71851  -0.71107
  Beta  occ. eigenvalues --   -0.70130  -0.64422  -0.62331  -0.58604  -0.55911
  Beta  occ. eigenvalues --   -0.53065  -0.51822  -0.51017  -0.50414  -0.48345
  Beta  occ. eigenvalues --   -0.47529  -0.47182  -0.46344  -0.46114  -0.44981
  Beta  occ. eigenvalues --   -0.44271  -0.43809  -0.42507  -0.41650  -0.41197
  Beta  occ. eigenvalues --   -0.40205  -0.40031  -0.38743  -0.37671  -0.36324
  Beta  occ. eigenvalues --   -0.36126  -0.35719  -0.35697  -0.34515  -0.33584
  Beta  occ. eigenvalues --   -0.32741  -0.31771  -0.28238  -0.26721  -0.25997
  Beta virt. eigenvalues --   -0.05450  -0.03772  -0.02413   0.00482   0.01077
  Beta virt. eigenvalues --    0.02655   0.03439   0.03732   0.04624   0.04906
  Beta virt. eigenvalues --    0.05021   0.05473   0.05848   0.06189   0.06314

 Mulliken charges and spin densities:
               1          2
     1  O   -0.519749   0.482236
     2  N   -0.012187   0.501400
     3  C    0.202773  -0.037584
     4  C   -0.221684  -0.000181
     5  C    0.099956   0.002665
     6  C   -0.417772  -0.000348
     7  S   -0.019827   0.000409
     8  C    0.207570  -0.035690
     9  C   -0.311816   0.024670
    10  C   -0.344315   0.021421
    11  C   -0.341907   0.021712
    12  C   -0.321548   0.025479
    13  H    0.152862  -0.000868
    14  H    0.203220   0.000035
    15  H    0.165376   0.000038
    16  H    0.126081  -0.001161
    17  H    0.109005   0.000859
    18  H    0.145114  -0.001313
    19  H    0.147387  -0.001238
    20  H    0.108492   0.001712
    21  H    0.118923  -0.001257
    22  H    0.118033  -0.001391
    23  H    0.120593   0.001403
    24  H    0.142872  -0.001181
    25  H    0.142715  -0.001270
    26  H    0.115092   0.000838
    27  H    0.125010  -0.001287
    28  S    0.890445  -0.000080
    29  O   -0.511832   0.000003
    30  O   -0.568898  -0.000019
    31  C   -0.395552  -0.000012
    32  H    0.176920   0.000001
    33  H    0.186238   0.000001
    34  H    0.182413   0.000001
 Sum of Mulliken charges =  -0.00000   1.00000

 Dipole moment (field-independent basis, Debye):
    X=              4.1680    Y=              1.8407    Z=             -2.2382  Tot=              5.0764
 Quadrupole moment (field-independent basis, Debye-Ang):
   XX=           -107.2289   YY=           -109.0333   ZZ=           -116.3710
   XY=              5.3174   XZ=              7.0831   YZ=             -0.6330

 Normal termination of Gaussian 16 at Mon Jun 17 21:22:35 2019.
