 Gaussian 16, Revision B.01,
 Gaussian 16:  AM64L-G16RevB.01 20-Dec-2017

 -----------------
 #p gen 6d pbe1pbe
 -----------------

 ------------------
 start preoptimized
 ------------------
 Symbolic Z-matrix:
 Charge =  0 Multiplicity = 2

                         Standard orientation:
 ---------------------------------------------------------------------
 Center     Atomic      Atomic             Coordinates (Angstroms)
 Number     Number       Type             X           Y           Z
 ---------------------------------------------------------------------
      1          8           0       -3.677770    0.176200    1.024785
      2          7           0       -2.640512    0.048757    0.313286
      3          6           0       -2.171730   -1.263584   -0.175240
      4          6           0       -0.863046   -0.861363   -0.786011
      5          6           0       -0.594758    0.441831   -0.649716
      6          6           0        0.613773    1.121241   -1.192268
      7         16           0        1.949302    1.447036    0.038640
      8          6           0       -1.699277    1.168651    0.090859
      9          6           0       -1.279202    1.748544    1.443422
     10          6           0       -2.383281    2.242330   -0.762342
     11          6           0       -3.158110   -1.819977   -1.205099
     12          6           0       -2.015393   -2.228209    1.004496
     13          1           0       -0.209653   -1.576006   -1.280527
     14          1           0        1.070995    0.534932   -1.991458
     15          1           0        0.390905    2.121252   -1.580624
     16          1           0       -0.744177    1.005774    2.040532
     17          1           0       -0.629054    2.619667    1.309849
     18          1           0       -2.178040    2.058978    1.984870
     19          1           0       -3.294009    2.578011   -0.253942
     20          1           0       -1.729667    3.110971   -0.900616
     21          1           0       -2.658701    1.847787   -1.745174
     22          1           0       -3.257792   -1.141153   -2.059861
     23          1           0       -2.815566   -2.795683   -1.571261
     24          1           0       -4.141331   -1.944721   -0.740725
     25          1           0       -2.981711   -2.341458    1.506709
     26          1           0       -1.681333   -3.209469    0.649245
     27          1           0       -1.282944   -1.853433    1.723924
     28         16           0        2.752945   -0.534779    0.111014
     29          8           0        2.322775   -1.213292    1.352479
     30          8           0        2.499180   -1.172891   -1.203825
     31          6           0        4.509245   -0.190348    0.247775
     32          1           0        4.667393    0.421483    1.139508
     33          1           0        4.987238   -1.166680    0.359741
     34          1           0        4.832267    0.317486   -0.660428
 ---------------------------------------------------------------------

 SCF Done:  E(UPBE1PBE) =  -1467.54856908     A.U. after   16 cycles

 The electronic state is 2-A.
 Alpha  occ. eigenvalues --  -89.28802 -89.08192 -19.24747 -19.24224 -19.22611
 Alpha  occ. eigenvalues --  -14.48506 -10.29741 -10.29701 -10.29117 -10.28708
 Alpha  occ. eigenvalues --  -10.26127 -10.24856 -10.23310 -10.22830 -10.22578
 Alpha  occ. eigenvalues --  -10.22321  -8.22121  -8.04434  -6.15844  -6.15800
 Alpha  occ. eigenvalues --   -6.15686  -5.98275  -5.97899  -5.97175  -1.14715
 Alpha  occ. eigenvalues --   -1.13622  -1.04477  -0.93303  -0.85925  -0.84035
 Alpha  occ. eigenvalues --   -0.82246  -0.77238  -0.74909  -0.72103  -0.71237
 Alpha  occ. eigenvalues --   -0.70587  -0.64476  -0.62460  -0.58984  -0.56419
 Alpha  occ. eigenvalues --   -0.53155  -0.51828  -0.51303  -0.50750  -0.50237
 Alpha  occ. eigenvalues --   -0.48516  -0.47413  -0.46361  -0.46179  -0.45139
 Alpha  occ. eigenvalues --   -0.44655  -0.43967  -0.42784  -0.42448  -0.41670
 Alpha  occ. eigenvalues --   -0.40511  -0.40085  -0.39083  -0.38888  -0.36503
 Alpha  occ. eigenvalues --   -0.36366  -0.36182  -0.35749  -0.35656  -0.34544
 Alpha  occ. eigenvalues --   -0.33587  -0.31776  -0.28319  -0.27216  -0.26893
 Alpha  occ. eigenvalues --   -0.20092
 Alpha virt. eigenvalues --   -0.05448  -0.02452   0.00468   0.01071   0.02633
 Alpha virt. eigenvalues --    0.03412   0.03696   0.04583   0.04814   0.04990
 Alpha virt. eigenvalues --    0.05448   0.05806   0.06162   0.06288   0.06853

  Beta  occ. eigenvalues --  -89.28802 -89.08191 -19.24747 -19.24224 -19.21181
  Beta  occ. eigenvalues --  -14.47316 -10.29743 -10.29701 -10.29182 -10.28773
  Beta  occ. eigenvalues --  -10.26126 -10.24854 -10.23258 -10.22778 -10.22529
  Beta  occ. eigenvalues --  -10.22271  -8.22121  -8.04434  -6.15844  -6.15800
  Beta  occ. eigenvalues --   -6.15686  -5.98275  -5.97898  -5.97175  -1.14715
  Beta  occ. eigenvalues --   -1.10991  -1.04477  -0.92354  -0.85735  -0.83932
  Beta  occ. eigenvalues --   -0.82114  -0.77044  -0.73841  -0.71851  -0.71107
  Beta  occ. eigenvalues --   -0.70129  -0.64423  -0.62332  -0.58608  -0.55910
  Beta  occ. eigenvalues --   -0.53064  -0.51822  -0.51017  -0.50414  -0.48346
  Beta  occ. eigenvalues --   -0.47531  -0.47183  -0.46345  -0.46115  -0.44982
  Beta  occ. eigenvalues --   -0.44274  -0.43811  -0.42508  -0.41650  -0.41198
  Beta  occ. eigenvalues --   -0.40206  -0.40031  -0.38751  -0.37672  -0.36324
  Beta  occ. eigenvalues --   -0.36125  -0.35718  -0.35697  -0.34516  -0.33584
  Beta  occ. eigenvalues --   -0.32752  -0.31771  -0.28239  -0.26722  -0.25996
  Beta virt. eigenvalues --   -0.05449  -0.03754  -0.02413   0.00481   0.01077
  Beta virt. eigenvalues --    0.02654   0.03439   0.03734   0.04623   0.04905
  Beta virt. eigenvalues --    0.05021   0.05474   0.05849   0.06190   0.06314

 Mulliken charges and spin densities:
               1          2
     1  O   -0.520070   0.482025
     2  N   -0.011621   0.501809
     3  C    0.203174  -0.037729
     4  C   -0.222079  -0.000187
     5  C    0.099634   0.002614
     6  C   -0.417765  -0.000360
     7  S   -0.019877   0.000419
     8  C    0.207947  -0.035832
     9  C   -0.311990   0.024656
    10  C   -0.344221   0.021515
    11  C   -0.341876   0.021786
    12  C   -0.321698   0.025473
    13  H    0.152850  -0.000882
    14  H    0.203185   0.000030
    15  H    0.165381   0.000040
    16  H    0.126105  -0.001168
    17  H    0.109030   0.000887
    18  H    0.145007  -0.001313
    19  H    0.147457  -0.001240
    20  H    0.108479   0.001700
    21  H    0.118887  -0.001256
    22  H    0.117986  -0.001391
    23  H    0.120567   0.001387
    24  H    0.142951  -0.001183
    25  H    0.142586  -0.001270
    26  H    0.115140   0.000869
    27  H    0.125074  -0.001295
    28  S    0.890478  -0.000080
    29  O   -0.511821   0.000003
    30  O   -0.568938  -0.000018
    31  C   -0.395545  -0.000012
    32  H    0.176930   0.000001
    33  H    0.186236   0.000001
    34  H    0.182415   0.000001
 Sum of Mulliken charges =  -0.00000   1.00000

 Dipole moment (field-independent basis, Debye):
    X=              4.1696    Y=              1.8409    Z=             -2.2343  Tot=              5.0761
 Quadrupole moment (field-independent basis, Debye-Ang):
   XX=           -107.2517   YY=           -109.0334   ZZ=           -116.3612
   XY=              5.3263   XZ=              7.0697   YZ=             -0.6331

 Normal termination of Gaussian 16 at Wed Jun 12 15:29:14 2019.
