 Gaussian 16, Revision B.01,
 Gaussian 16:  AM64L-G16RevB.01 20-Dec-2017

 -----------------
 #p gen 6d pbe1pbe
 -----------------

 ------------------
 start preoptimized
 ------------------
 Symbolic Z-matrix:
 Charge =  0 Multiplicity = 2

                         Standard orientation:
 ---------------------------------------------------------------------
 Center     Atomic      Atomic             Coordinates (Angstroms)
 Number     Number       Type             X           Y           Z
 ---------------------------------------------------------------------
      1          8           0       -3.765193    0.199649    0.873710
      2          7           0       -2.605269    0.027915    0.392305
      3          6           0       -2.157469   -1.273765   -0.149031
      4          6           0       -0.882452   -0.852765   -0.819528
      5          6           0       -0.609339    0.447030   -0.657932
      6          6           0        0.598493    1.125843   -1.202667
      7         16           0        1.938608    1.444969    0.026032
      8          6           0       -1.694019    1.160903    0.120316
      9          6           0       -1.231579    1.764131    1.450535
     10          6           0       -2.434578    2.210933   -0.712005
     11          6           0       -3.213530   -1.816978   -1.115403
     12          6           0       -1.904987   -2.264344    0.992926
     13          1           0       -0.242913   -1.560731   -1.339968
     14          1           0        1.054315    0.540119   -2.007880
     15          1           0        0.379117    2.129073   -1.586842
     16          1           0       -0.656997    1.039115    2.036582
     17          1           0       -0.605072    2.647299    1.288409
     18          1           0       -2.114605    2.066938    2.024569
     19          1           0       -3.324935    2.534097   -0.166212
     20          1           0       -1.799832    3.086830   -0.888453
     21          1           0       -2.746591    1.799098   -1.678324
     22          1           0       -3.377783   -1.125749   -1.946656
     23          1           0       -2.897560   -2.782351   -1.519915
     24          1           0       -4.160158   -1.949750   -0.578962
     25          1           0       -2.829720   -2.414277    1.562318
     26          1           0       -1.578250   -3.230445    0.594517
     27          1           0       -1.127563   -1.889986    1.669658
     28         16           0        2.760584   -0.528476    0.102597
     29          8           0        2.344094   -1.206690    1.347246
     30          8           0        2.508001   -1.179466   -1.209937
     31          6           0        4.511215   -0.157198    0.235081
     32          1           0        4.661448    0.461575    1.120238
     33          1           0        5.003477   -1.126481    0.351133
     34          1           0        4.827689    0.345657   -0.680317
 ---------------------------------------------------------------------

 SCF Done:  E(UPBE1PBE) =  -1467.54831547     A.U. after   16 cycles

 The electronic state is 2-A.
 Alpha  occ. eigenvalues --  -89.28824 -89.08215 -19.24729 -19.24263 -19.22640
 Alpha  occ. eigenvalues --  -14.48518 -10.29840 -10.29718 -10.29152 -10.28747
 Alpha  occ. eigenvalues --  -10.26179 -10.24916 -10.23169 -10.22752 -10.22642
 Alpha  occ. eigenvalues --  -10.22474  -8.22139  -8.04458  -6.15860  -6.15819
 Alpha  occ. eigenvalues --   -6.15704  -5.98301  -5.97920  -5.97200  -1.14663
 Alpha  occ. eigenvalues --   -1.13431  -1.04428  -0.93286  -0.85920  -0.84044
 Alpha  occ. eigenvalues --   -0.82282  -0.77272  -0.74920  -0.72039  -0.71209
 Alpha  occ. eigenvalues --   -0.70628  -0.64491  -0.62470  -0.59021  -0.56412
 Alpha  occ. eigenvalues --   -0.53119  -0.51822  -0.51305  -0.50772  -0.50182
 Alpha  occ. eigenvalues --   -0.48479  -0.47412  -0.46380  -0.46162  -0.45208
 Alpha  occ. eigenvalues --   -0.44653  -0.44022  -0.42704  -0.42369  -0.41615
 Alpha  occ. eigenvalues --   -0.40521  -0.40050  -0.39131  -0.38886  -0.36475
 Alpha  occ. eigenvalues --   -0.36399  -0.36125  -0.35732  -0.35643  -0.34603
 Alpha  occ. eigenvalues --   -0.33581  -0.31772  -0.28364  -0.27202  -0.26934
 Alpha  occ. eigenvalues --   -0.20163
 Alpha virt. eigenvalues --   -0.05430  -0.02508   0.00429   0.01046   0.02613
 Alpha virt. eigenvalues --    0.03427   0.03746   0.04533   0.04781   0.05006
 Alpha virt. eigenvalues --    0.05449   0.05832   0.06166   0.06281   0.06845

  Beta  occ. eigenvalues --  -89.28824 -89.08215 -19.24729 -19.24263 -19.21209
  Beta  occ. eigenvalues --  -14.47324 -10.29842 -10.29718 -10.29217 -10.28811
  Beta  occ. eigenvalues --  -10.26178 -10.24912 -10.23121 -10.22701 -10.22597
  Beta  occ. eigenvalues --  -10.22420  -8.22139  -8.04458  -6.15860  -6.15819
  Beta  occ. eigenvalues --   -6.15704  -5.98300  -5.97919  -5.97200  -1.14663
  Beta  occ. eigenvalues --   -1.10795  -1.04428  -0.92337  -0.85727  -0.83942
  Beta  occ. eigenvalues --   -0.82145  -0.77071  -0.73854  -0.71801  -0.71083
  Beta  occ. eigenvalues --   -0.70160  -0.64438  -0.62340  -0.58641  -0.55899
  Beta  occ. eigenvalues --   -0.53033  -0.51814  -0.51024  -0.50421  -0.48393
  Beta  occ. eigenvalues --   -0.47494  -0.47155  -0.46371  -0.46093  -0.44947
  Beta  occ. eigenvalues --   -0.44300  -0.43892  -0.42497  -0.41581  -0.41118
  Beta  occ. eigenvalues --   -0.40212  -0.40015  -0.38779  -0.37645  -0.36345
  Beta  occ. eigenvalues --   -0.36089  -0.35702  -0.35644  -0.34575  -0.33579
  Beta  occ. eigenvalues --   -0.32711  -0.31769  -0.28271  -0.26744  -0.26008
  Beta virt. eigenvalues --   -0.05432  -0.03810  -0.02463   0.00440   0.01052
  Beta virt. eigenvalues --    0.02633   0.03448   0.03785   0.04567   0.04869
  Beta virt. eigenvalues --    0.05041   0.05476   0.05877   0.06194   0.06310

 Mulliken charges and spin densities:
               1          2
     1  O   -0.515659   0.481805
     2  N   -0.030004   0.501573
     3  C    0.226390  -0.036987
     4  C   -0.236142  -0.000054
     5  C    0.086920   0.002574
     6  C   -0.415962  -0.000728
     7  S   -0.022549   0.000763
     8  C    0.228465  -0.034684
     9  C   -0.318959   0.021676
    10  C   -0.337555   0.024217
    11  C   -0.337805   0.023245
    12  C   -0.327656   0.022608
    13  H    0.152526  -0.000644
    14  H    0.201424  -0.000107
    15  H    0.165774   0.000121
    16  H    0.127782  -0.001379
    17  H    0.109943   0.001863
    18  H    0.140488  -0.001293
    19  H    0.151683  -0.001291
    20  H    0.107548   0.000671
    21  H    0.117521  -0.001070
    22  H    0.115803  -0.001123
    23  H    0.118684   0.000281
    24  H    0.147452  -0.001219
    25  H    0.137085  -0.001275
    26  H    0.117254   0.001904
    27  H    0.128698  -0.001446
    28  S    0.891307  -0.000074
    29  O   -0.510644   0.000025
    30  O   -0.570809   0.000052
    31  C   -0.395108  -0.000003
    32  H    0.177409  -0.000003
    33  H    0.186149   0.000004
    34  H    0.182546  -0.000001
 Sum of Mulliken charges =  -0.00000   1.00000

 Dipole moment (field-independent basis, Debye):
    X=              4.2541    Y=              1.8582    Z=             -2.0392  Tot=              5.0703
 Quadrupole moment (field-independent basis, Debye-Ang):
   XX=           -108.2921   YY=           -109.0667   ZZ=           -115.9072
   XY=              5.7323   XZ=              6.3289   YZ=             -0.6176

 Normal termination of Gaussian 16 at Mon Jun 17 21:36:08 2019.
