 Gaussian 16, Revision B.01,
 Gaussian 16:  AM64L-G16RevB.01 20-Dec-2017

 -----------------
 #p gen 6d pbe1pbe
 -----------------

 ------------------
 start preoptimized
 ------------------
 Symbolic Z-matrix:
 Charge =  0 Multiplicity = 2

                         Standard orientation:
 ---------------------------------------------------------------------
 Center     Atomic      Atomic             Coordinates (Angstroms)
 Number     Number       Type             X           Y           Z
 ---------------------------------------------------------------------
      1          8           0       -3.672365    0.174657    1.034264
      2          7           0       -2.642686    0.050061    0.308345
      3          6           0       -2.172609   -1.262947   -0.176902
      4          6           0       -0.861847   -0.861897   -0.783927
      5          6           0       -0.593855    0.441513   -0.649189
      6          6           0        0.614717    1.120976   -1.191593
      7         16           0        1.949964    1.447169    0.039456
      8          6           0       -1.699600    1.169132    0.089044
      9          6           0       -1.282185    1.747550    1.442999
     10          6           0       -2.380063    2.244292   -0.765420
     11          6           0       -3.154619   -1.820158   -1.210718
     12          6           0       -2.022279   -2.225952    1.005148
     13          1           0       -0.207596   -1.576951   -1.276835
     14          1           0        1.072025    0.534648   -1.990421
     15          1           0        0.391627    2.120796   -1.580193
     16          1           0       -0.749636    1.003669    2.040771
     17          1           0       -0.630574    2.617916    1.311232
     18          1           0       -2.181999    2.058454    1.982415
     19          1           0       -3.292050    2.580750   -0.259353
     20          1           0       -1.725286    3.112476   -0.901286
     21          1           0       -2.653187    1.850840   -1.749278
     22          1           0       -3.250266   -1.142107   -2.066918
     23          1           0       -2.810426   -2.796514   -1.574497
     24          1           0       -4.140102   -1.944396   -0.750860
     25          1           0       -2.991164   -2.336904    1.503154
     26          1           0       -1.687776   -3.208158    0.652575
     27          1           0       -1.292654   -1.851154    1.727238
     28         16           0        2.752470   -0.535163    0.111522
     29          8           0        2.321450   -1.213719    1.352771
     30          8           0        2.498633   -1.172443   -1.203474
     31          6           0        4.509116   -0.192408    0.248552
     32          1           0        4.667755    0.418969    1.140710
     33          1           0        4.986221   -1.169177    0.360237
     34          1           0        4.832543    0.315755   -0.659190
 ---------------------------------------------------------------------

 SCF Done:  E(UPBE1PBE) =  -1467.54847209     A.U. after   16 cycles

 The electronic state is 2-A.
 Alpha  occ. eigenvalues --  -89.28802 -89.08191 -19.24748 -19.24222 -19.22627
 Alpha  occ. eigenvalues --  -14.48511 -10.29736 -10.29700 -10.29120 -10.28713
 Alpha  occ. eigenvalues --  -10.26126 -10.24856 -10.23320 -10.22846 -10.22568
 Alpha  occ. eigenvalues --  -10.22315  -8.22121  -8.04433  -6.15843  -6.15799
 Alpha  occ. eigenvalues --   -6.15685  -5.98274  -5.97898  -5.97174  -1.14719
 Alpha  occ. eigenvalues --   -1.13532  -1.04480  -0.93294  -0.85924  -0.84031
 Alpha  occ. eigenvalues --   -0.82244  -0.77237  -0.74912  -0.72102  -0.71235
 Alpha  occ. eigenvalues --   -0.70587  -0.64473  -0.62457  -0.58975  -0.56422
 Alpha  occ. eigenvalues --   -0.53157  -0.51829  -0.51305  -0.50749  -0.50208
 Alpha  occ. eigenvalues --   -0.48514  -0.47408  -0.46360  -0.46177  -0.45132
 Alpha  occ. eigenvalues --   -0.44652  -0.43959  -0.42781  -0.42440  -0.41666
 Alpha  occ. eigenvalues --   -0.40507  -0.40090  -0.39058  -0.38874  -0.36501
 Alpha  occ. eigenvalues --   -0.36363  -0.36185  -0.35749  -0.35656  -0.34540
 Alpha  occ. eigenvalues --   -0.33587  -0.31776  -0.28317  -0.27224  -0.26894
 Alpha  occ. eigenvalues --   -0.20150
 Alpha virt. eigenvalues --   -0.05450  -0.02450   0.00470   0.01072   0.02633
 Alpha virt. eigenvalues --    0.03410   0.03692   0.04585   0.04817   0.04990
 Alpha virt. eigenvalues --    0.05447   0.05804   0.06160   0.06289   0.06852

  Beta  occ. eigenvalues --  -89.28802 -89.08191 -19.24748 -19.24222 -19.21195
  Beta  occ. eigenvalues --  -14.47323 -10.29737 -10.29700 -10.29184 -10.28777
  Beta  occ. eigenvalues --  -10.26125 -10.24853 -10.23269 -10.22794 -10.22520
  Beta  occ. eigenvalues --  -10.22266  -8.22121  -8.04433  -6.15843  -6.15799
  Beta  occ. eigenvalues --   -6.15685  -5.98274  -5.97898  -5.97174  -1.14719
  Beta  occ. eigenvalues --   -1.10900  -1.04480  -0.92341  -0.85733  -0.83928
  Beta  occ. eigenvalues --   -0.82112  -0.77041  -0.73844  -0.71851  -0.71105
  Beta  occ. eigenvalues --   -0.70132  -0.64420  -0.62329  -0.58597  -0.55913
  Beta  occ. eigenvalues --   -0.53066  -0.51823  -0.51017  -0.50414  -0.48343
  Beta  occ. eigenvalues --   -0.47524  -0.47178  -0.46343  -0.46113  -0.44979
  Beta  occ. eigenvalues --   -0.44265  -0.43803  -0.42505  -0.41648  -0.41195
  Beta  occ. eigenvalues --   -0.40203  -0.40032  -0.38727  -0.37667  -0.36322
  Beta  occ. eigenvalues --   -0.36128  -0.35721  -0.35696  -0.34512  -0.33584
  Beta  occ. eigenvalues --   -0.32717  -0.31771  -0.28236  -0.26720  -0.26000
  Beta virt. eigenvalues --   -0.05451  -0.03810  -0.02412   0.00483   0.01078
  Beta virt. eigenvalues --    0.02655   0.03437   0.03730   0.04626   0.04908
  Beta virt. eigenvalues --    0.05021   0.05472   0.05846   0.06188   0.06314

 Mulliken charges and spin densities:
               1          2
     1  O   -0.519065   0.482685
     2  N   -0.013431   0.500538
     3  C    0.201992  -0.037278
     4  C   -0.220892  -0.000169
     5  C    0.100599   0.002773
     6  C   -0.417785  -0.000323
     7  S   -0.019726   0.000387
     8  C    0.206832  -0.035392
     9  C   -0.311463   0.024690
    10  C   -0.344499   0.021229
    11  C   -0.341966   0.021561
    12  C   -0.321245   0.025486
    13  H    0.152888  -0.000839
    14  H    0.203289   0.000046
    15  H    0.165365   0.000033
    16  H    0.126033  -0.001147
    17  H    0.108954   0.000803
    18  H    0.145329  -0.001313
    19  H    0.147248  -0.001234
    20  H    0.108517   0.001734
    21  H    0.118993  -0.001259
    22  H    0.118125  -0.001391
    23  H    0.120645   0.001433
    24  H    0.142716  -0.001178
    25  H    0.142973  -0.001269
    26  H    0.114996   0.000775
    27  H    0.124883  -0.001270
    28  S    0.890381  -0.000081
    29  O   -0.511852   0.000001
    30  O   -0.568819  -0.000022
    31  C   -0.395565  -0.000012
    32  H    0.176900   0.000001
    33  H    0.186242   0.000000
    34  H    0.182408   0.000001
 Sum of Mulliken charges =  -0.00000   1.00000

 Dipole moment (field-independent basis, Debye):
    X=              4.1648    Y=              1.8403    Z=             -2.2461  Tot=              5.0771
 Quadrupole moment (field-independent basis, Debye-Ang):
   XX=           -107.1834   YY=           -109.0330   ZZ=           -116.3904
   XY=              5.2997   XZ=              7.1095   YZ=             -0.6329

 Normal termination of Gaussian 16 at Mon Jun 17 21:25:21 2019.
