 Gaussian 16, Revision B.01,
 Gaussian 16:  AM64L-G16RevB.01 20-Dec-2017

 -----------------
 #p gen 6d pbe1pbe
 -----------------

 ------------------
 start preoptimized
 ------------------
 Symbolic Z-matrix:
 Charge =  0 Multiplicity = 2

                         Standard orientation:
 ---------------------------------------------------------------------
 Center     Atomic      Atomic             Coordinates (Angstroms)
 Number     Number       Type             X           Y           Z
 ---------------------------------------------------------------------
      1          8           0       -3.763353    0.199183    0.876846
      2          7           0       -2.606012    0.028349    0.390660
      3          6           0       -2.157770   -1.273553   -0.149570
      4          6           0       -0.882043   -0.852945   -0.818827
      5          6           0       -0.609033    0.446920   -0.657765
      6          6           0        0.598814    1.125741   -1.202458
      7         16           0        1.938833    1.445011    0.026287
      8          6           0       -1.694130    1.161065    0.119695
      9          6           0       -1.232570    1.763812    1.450381
     10          6           0       -2.433513    2.211588   -0.713074
     11          6           0       -3.212384   -1.817042   -1.117268
     12          6           0       -1.907292   -2.263591    0.993188
     13          1           0       -0.242213   -1.561052   -1.338723
     14          1           0        1.054666    0.539999   -2.007541
     15          1           0        0.379368    2.128901   -1.586725
     16          1           0       -0.658810    1.038426    2.036667
     17          1           0       -0.605565    2.646730    1.288843
     18          1           0       -2.115928    2.066780    2.023735
     19          1           0       -3.324299    2.535014   -0.168061
     20          1           0       -1.798369    3.087334   -0.888733
     21          1           0       -2.744766    1.800110   -1.679739
     22          1           0       -3.375291   -1.126071   -1.949021
     23          1           0       -2.895856   -2.782629   -1.520977
     24          1           0       -4.159782   -1.949647   -0.582325
     25          1           0       -2.832901   -2.412762    1.561184
     26          1           0       -1.580397   -3.230008    0.595684
     27          1           0       -1.130801   -1.889224    1.670812
     28         16           0        2.760424   -0.528610    0.102778
     29          8           0        2.343648   -1.206824    1.347365
     30          8           0        2.507815   -1.179340   -1.209800
     31          6           0        4.511176   -0.157892    0.235350
     32          1           0        4.661575    0.460742    1.120640
     33          1           0        5.003140   -1.127323    0.351324
     34          1           0        4.827788    0.345061   -0.679901
 ---------------------------------------------------------------------

 SCF Done:  E(UPBE1PBE) =  -1467.54835765     A.U. after   16 cycles

 The electronic state is 2-A.
 Alpha  occ. eigenvalues --  -89.28824 -89.08215 -19.24729 -19.24262 -19.22634
 Alpha  occ. eigenvalues --  -14.48516 -10.29838 -10.29718 -10.29150 -10.28744
 Alpha  occ. eigenvalues --  -10.26178 -10.24913 -10.23172 -10.22748 -10.22645
 Alpha  occ. eigenvalues --  -10.22470  -8.22138  -8.04458  -6.15860  -6.15819
 Alpha  occ. eigenvalues --   -6.15703  -5.98300  -5.97919  -5.97199  -1.14664
 Alpha  occ. eigenvalues --   -1.13466  -1.04429  -0.93290  -0.85920  -0.84045
 Alpha  occ. eigenvalues --   -0.82281  -0.77271  -0.74919  -0.72042  -0.71211
 Alpha  occ. eigenvalues --   -0.70627  -0.64492  -0.62470  -0.59023  -0.56412
 Alpha  occ. eigenvalues --   -0.53119  -0.51822  -0.51305  -0.50771  -0.50192
 Alpha  occ. eigenvalues --   -0.48481  -0.47414  -0.46379  -0.46163  -0.45207
 Alpha  occ. eigenvalues --   -0.44654  -0.44022  -0.42707  -0.42375  -0.41618
 Alpha  occ. eigenvalues --   -0.40522  -0.40049  -0.39137  -0.38890  -0.36476
 Alpha  occ. eigenvalues --   -0.36399  -0.36126  -0.35733  -0.35644  -0.34602
 Alpha  occ. eigenvalues --   -0.33581  -0.31772  -0.28363  -0.27200  -0.26933
 Alpha  occ. eigenvalues --   -0.20143
 Alpha virt. eigenvalues --   -0.05430  -0.02506   0.00430   0.01047   0.02613
 Alpha virt. eigenvalues --    0.03427   0.03745   0.04535   0.04781   0.05006
 Alpha virt. eigenvalues --    0.05449   0.05832   0.06166   0.06281   0.06846

  Beta  occ. eigenvalues --  -89.28824 -89.08214 -19.24729 -19.24262 -19.21204
  Beta  occ. eigenvalues --  -14.47322 -10.29840 -10.29718 -10.29215 -10.28808
  Beta  occ. eigenvalues --  -10.26176 -10.24910 -10.23124 -10.22697 -10.22600
  Beta  occ. eigenvalues --  -10.22415  -8.22138  -8.04457  -6.15860  -6.15819
  Beta  occ. eigenvalues --   -6.15703  -5.98300  -5.97919  -5.97199  -1.14664
  Beta  occ. eigenvalues --   -1.10830  -1.04429  -0.92341  -0.85728  -0.83943
  Beta  occ. eigenvalues --   -0.82144  -0.77071  -0.73853  -0.71803  -0.71085
  Beta  occ. eigenvalues --   -0.70158  -0.64439  -0.62340  -0.58643  -0.55898
  Beta  occ. eigenvalues --   -0.53033  -0.51814  -0.51024  -0.50420  -0.48392
  Beta  occ. eigenvalues --   -0.47496  -0.47157  -0.46370  -0.46095  -0.44949
  Beta  occ. eigenvalues --   -0.44302  -0.43891  -0.42498  -0.41584  -0.41122
  Beta  occ. eigenvalues --   -0.40212  -0.40015  -0.38786  -0.37648  -0.36345
  Beta  occ. eigenvalues --   -0.36090  -0.35702  -0.35646  -0.34574  -0.33579
  Beta  occ. eigenvalues --   -0.32723  -0.31769  -0.28270  -0.26744  -0.26006
  Beta virt. eigenvalues --   -0.05432  -0.03791  -0.02461   0.00441   0.01052
  Beta virt. eigenvalues --    0.02634   0.03448   0.03785   0.04568   0.04870
  Beta virt. eigenvalues --    0.05041   0.05476   0.05877   0.06194   0.06310

 Mulliken charges and spin densities:
               1          2
     1  O   -0.516139   0.481610
     2  N   -0.028767   0.501984
     3  C    0.225927  -0.037157
     4  C   -0.236007  -0.000067
     5  C    0.087089   0.002529
     6  C   -0.416037  -0.000726
     7  S   -0.022483   0.000761
     8  C    0.228039  -0.034871
     9  C   -0.318837   0.021772
    10  C   -0.337744   0.024210
    11  C   -0.337946   0.023268
    12  C   -0.327554   0.022703
    13  H    0.152529  -0.000666
    14  H    0.201461  -0.000107
    15  H    0.165762   0.000120
    16  H    0.127743  -0.001378
    17  H    0.109927   0.001852
    18  H    0.140560  -0.001295
    19  H    0.151586  -0.001291
    20  H    0.107575   0.000699
    21  H    0.117535  -0.001076
    22  H    0.115830  -0.001132
    23  H    0.118737   0.000308
    24  H    0.147351  -0.001219
    25  H    0.137177  -0.001276
    26  H    0.117212   0.001895
    27  H    0.128622  -0.001449
    28  S    0.891327  -0.000074
    29  O   -0.510687   0.000025
    30  O   -0.570769   0.000051
    31  C   -0.395117  -0.000004
    32  H    0.177399  -0.000002
    33  H    0.186151   0.000004
    34  H    0.182544  -0.000001
 Sum of Mulliken charges =  -0.00000   1.00000

 Dipole moment (field-independent basis, Debye):
    X=              4.2523    Y=              1.8577    Z=             -2.0432  Tot=              5.0703
 Quadrupole moment (field-independent basis, Debye-Ang):
   XX=           -108.2725   YY=           -109.0656   ZZ=           -115.9156
   XY=              5.7245   XZ=              6.3456   YZ=             -0.6183

 Normal termination of Gaussian 16 at Mon Jun 17 21:33:26 2019.
