 Gaussian 16, Revision B.01,
 Gaussian 16:  AM64L-G16RevB.01 20-Dec-2017

 -----------------
 #p gen 6d pbe1pbe
 -----------------

 ------------------
 start preoptimized
 ------------------
 Symbolic Z-matrix:
 Charge =  0 Multiplicity = 2

                         Standard orientation:
 ---------------------------------------------------------------------
 Center     Atomic      Atomic             Coordinates (Angstroms)
 Number     Number       Type             X           Y           Z
 ---------------------------------------------------------------------
      1          8           0       -3.754168    0.196840    0.892532
      2          7           0       -2.609721    0.030519    0.382433
      3          6           0       -2.159272   -1.272493   -0.152268
      4          6           0       -0.880004   -0.853845   -0.815323
      5          6           0       -0.607503    0.446370   -0.656927
      6          6           0        0.600420    1.125232   -1.201406
      7         16           0        1.939954    1.445221    0.027564
      8          6           0       -1.694685    1.161877    0.116594
      9          6           0       -1.237522    1.762213    1.449614
     10          6           0       -2.428186    2.214862   -0.718406
     11          6           0       -3.206647   -1.817359   -1.126596
     12          6           0       -1.918811   -2.259828    0.994486
     13          1           0       -0.238720   -1.562655   -1.332503
     14          1           0        1.056420    0.539407   -2.005846
     15          1           0        0.380615    2.128045   -1.586132
     16          1           0       -0.667878    1.034979    2.037091
     17          1           0       -0.608035    2.643881    1.291021
     18          1           0       -2.122543    2.065985    2.019568
     19          1           0       -3.321113    2.539597   -0.177292
     20          1           0       -1.791054    3.089856   -0.890115
     21          1           0       -2.735639    1.805172   -1.686798
     22          1           0       -3.362828   -1.127682   -1.960840
     23          1           0       -2.887335   -2.784018   -1.526295
     24          1           0       -4.157892   -1.949133   -0.599145
     25          1           0       -2.848795   -2.405183    1.555497
     26          1           0       -1.591132   -3.227826    0.601503
     27          1           0       -1.146989   -1.885413    1.676569
     28         16           0        2.759627   -0.529280    0.103680
     29          8           0        2.341418   -1.207493    1.347955
     30          8           0        2.506891   -1.178702   -1.209123
     31          6           0        4.510979   -0.161362    0.236694
     32          1           0        4.662208    0.456577    1.122650
     33          1           0        5.001451   -1.131531    0.352275
     34          1           0        4.828279    0.342087   -0.677822
 ---------------------------------------------------------------------

 SCF Done:  E(UPBE1PBE) =  -1467.54853362     A.U. after   16 cycles

 The electronic state is 2-A.
 Alpha  occ. eigenvalues --  -89.28821 -89.08211 -19.24730 -19.24257 -19.22607
 Alpha  occ. eigenvalues --  -14.48507 -10.29827 -10.29715 -10.29139 -10.28729
 Alpha  occ. eigenvalues --  -10.26169 -10.24903 -10.23185 -10.22729 -10.22658
 Alpha  occ. eigenvalues --  -10.22448  -8.22136  -8.04454  -6.15857  -6.15816
 Alpha  occ. eigenvalues --   -6.15701  -5.98297  -5.97916  -5.97196  -1.14669
 Alpha  occ. eigenvalues --   -1.13622  -1.04434  -0.93306  -0.85922  -0.84049
 Alpha  occ. eigenvalues --   -0.82277  -0.77266  -0.74913  -0.72054  -0.71219
 Alpha  occ. eigenvalues --   -0.70618  -0.64493  -0.62472  -0.59028  -0.56410
 Alpha  occ. eigenvalues --   -0.53123  -0.51822  -0.51302  -0.50768  -0.50239
 Alpha  occ. eigenvalues --   -0.48490  -0.47422  -0.46377  -0.46169  -0.45205
 Alpha  occ. eigenvalues --   -0.44658  -0.44021  -0.42723  -0.42403  -0.41635
 Alpha  occ. eigenvalues --   -0.40526  -0.40046  -0.39165  -0.38909  -0.36484
 Alpha  occ. eigenvalues --   -0.36398  -0.36132  -0.35736  -0.35647  -0.34597
 Alpha  occ. eigenvalues --   -0.33581  -0.31772  -0.28358  -0.27191  -0.26924
 Alpha  occ. eigenvalues --   -0.20051
 Alpha virt. eigenvalues --   -0.05431  -0.02498   0.00436   0.01050   0.02616
 Alpha virt. eigenvalues --    0.03427   0.03742   0.04540   0.04783   0.05003
 Alpha virt. eigenvalues --    0.05452   0.05830   0.06167   0.06281   0.06849

  Beta  occ. eigenvalues --  -89.28821 -89.08211 -19.24730 -19.24257 -19.21180
  Beta  occ. eigenvalues --  -14.47311 -10.29829 -10.29715 -10.29206 -10.28796
  Beta  occ. eigenvalues --  -10.26168 -10.24900 -10.23136 -10.22677 -10.22612
  Beta  occ. eigenvalues --  -10.22393  -8.22136  -8.04454  -6.15857  -6.15816
  Beta  occ. eigenvalues --   -6.15701  -5.98296  -5.97916  -5.97196  -1.14669
  Beta  occ. eigenvalues --   -1.10988  -1.04434  -0.92362  -0.85732  -0.83947
  Beta  occ. eigenvalues --   -0.82141  -0.77070  -0.73846  -0.71812  -0.71092
  Beta  occ. eigenvalues --   -0.70148  -0.64440  -0.62342  -0.58650  -0.55897
  Beta  occ. eigenvalues --   -0.53037  -0.51814  -0.51023  -0.50419  -0.48389
  Beta  occ. eigenvalues --   -0.47510  -0.47169  -0.46367  -0.46102  -0.44959
  Beta  occ. eigenvalues --   -0.44309  -0.43887  -0.42504  -0.41599  -0.41141
  Beta  occ. eigenvalues --   -0.40216  -0.40012  -0.38815  -0.37660  -0.36345
  Beta  occ. eigenvalues --   -0.36093  -0.35703  -0.35655  -0.34569  -0.33580
  Beta  occ. eigenvalues --   -0.32777  -0.31769  -0.28267  -0.26743  -0.25998
  Beta virt. eigenvalues --   -0.05433  -0.03706  -0.02451   0.00446   0.01056
  Beta virt. eigenvalues --    0.02637   0.03449   0.03782   0.04575   0.04873
  Beta virt. eigenvalues --    0.05038   0.05479   0.05876   0.06196   0.06311

 Mulliken charges and spin densities:
               1          2
     1  O   -0.518326   0.480768
     2  N   -0.023052   0.503788
     3  C    0.223544  -0.037926
     4  C   -0.235208  -0.000123
     5  C    0.088010   0.002331
     6  C   -0.416381  -0.000713
     7  S   -0.022160   0.000748
     8  C    0.225897  -0.035715
     9  C   -0.318212   0.022240
    10  C   -0.338655   0.024141
    11  C   -0.338617   0.023342
    12  C   -0.327030   0.023168
    13  H    0.152544  -0.000766
    14  H    0.201650  -0.000105
    15  H    0.165705   0.000115
    16  H    0.127549  -0.001368
    17  H    0.109847   0.001792
    18  H    0.140939  -0.001300
    19  H    0.151103  -0.001288
    20  H    0.107705   0.000838
    21  H    0.117616  -0.001105
    22  H    0.115990  -0.001177
    23  H    0.118991   0.000444
    24  H    0.146847  -0.001218
    25  H    0.137656  -0.001280
    26  H    0.117000   0.001836
    27  H    0.128238  -0.001456
    28  S    0.891395  -0.000074
    29  O   -0.510886   0.000024
    30  O   -0.570572   0.000044
    31  C   -0.395164  -0.000005
    32  H    0.177349  -0.000002
    33  H    0.186159   0.000003
    34  H    0.182529  -0.000001
 Sum of Mulliken charges =  -0.00000   1.00000

 Dipole moment (field-independent basis, Debye):
    X=              4.2432    Y=              1.8552    Z=             -2.0635  Tot=              5.0699
 Quadrupole moment (field-independent basis, Debye-Ang):
   XX=           -108.1727   YY=           -109.0602   ZZ=           -115.9586
   XY=              5.6851   XZ=              6.4283   YZ=             -0.6213

 Normal termination of Gaussian 16 at Mon Jun 17 21:22:40 2019.
