 Gaussian 16, Revision B.01,
 Gaussian 16:  AM64L-G16RevB.01 20-Dec-2017

 -----------------
 #p gen 6d pbe1pbe
 -----------------

 ------------------
 start preoptimized
 ------------------
 Symbolic Z-matrix:
 Charge =  0 Multiplicity = 2

                         Standard orientation:
 ---------------------------------------------------------------------
 Center     Atomic      Atomic             Coordinates (Angstroms)
 Number     Number       Type             X           Y           Z
 ---------------------------------------------------------------------
      1          8           0       -3.761515    0.198716    0.879982
      2          7           0       -2.606755    0.028783    0.389015
      3          6           0       -2.158071   -1.273341   -0.150109
      4          6           0       -0.881635   -0.853125   -0.818126
      5          6           0       -0.608727    0.446810   -0.657598
      6          6           0        0.599136    1.125638   -1.202248
      7         16           0        1.939057    1.445053    0.026541
      8          6           0       -1.694241    1.161228    0.119074
      9          6           0       -1.233560    1.763492    1.450227
     10          6           0       -2.432448    2.212243   -0.714142
     11          6           0       -3.211238   -1.817105   -1.119133
     12          6           0       -1.909596   -2.262839    0.993449
     13          1           0       -0.241514   -1.561372   -1.337478
     14          1           0        1.055018    0.539880   -2.007202
     15          1           0        0.379617    2.128729   -1.586608
     16          1           0       -0.660623    1.037737    2.036752
     17          1           0       -0.606059    2.646161    1.289278
     18          1           0       -2.117251    2.066621    2.022901
     19          1           0       -3.323663    2.535931   -0.169909
     20          1           0       -1.796906    3.087839   -0.889011
     21          1           0       -2.742941    1.801122   -1.681153
     22          1           0       -3.372799   -1.126393   -1.951385
     23          1           0       -2.894152   -2.782907   -1.522040
     24          1           0       -4.159405   -1.949544   -0.585688
     25          1           0       -2.836081   -2.411246    1.560048
     26          1           0       -1.582544   -3.229572    0.596850
     27          1           0       -1.134038   -1.888462    1.671966
     28         16           0        2.760265   -0.528744    0.102959
     29          8           0        2.343202   -1.206957    1.347484
     30          8           0        2.507630   -1.179213   -1.209664
     31          6           0        4.511136   -0.158586    0.235619
     32          1           0        4.661702    0.459909    1.121042
     33          1           0        5.002802   -1.128165    0.351516
     34          1           0        4.827886    0.344465   -0.679485
 ---------------------------------------------------------------------

 SCF Done:  E(UPBE1PBE) =  -1467.54839737     A.U. after   16 cycles

 The electronic state is 2-A.
 Alpha  occ. eigenvalues --  -89.28823 -89.08214 -19.24729 -19.24261 -19.22628
 Alpha  occ. eigenvalues --  -14.48514 -10.29836 -10.29717 -10.29148 -10.28741
 Alpha  occ. eigenvalues --  -10.26176 -10.24911 -10.23174 -10.22744 -10.22647
 Alpha  occ. eigenvalues --  -10.22465  -8.22138  -8.04457  -6.15859  -6.15818
 Alpha  occ. eigenvalues --   -6.15703  -5.98299  -5.97919  -5.97198  -1.14665
 Alpha  occ. eigenvalues --   -1.13499  -1.04430  -0.93293  -0.85921  -0.84046
 Alpha  occ. eigenvalues --   -0.82280  -0.77270  -0.74918  -0.72044  -0.71212
 Alpha  occ. eigenvalues --   -0.70625  -0.64492  -0.62470  -0.59024  -0.56411
 Alpha  occ. eigenvalues --   -0.53120  -0.51822  -0.51304  -0.50770  -0.50202
 Alpha  occ. eigenvalues --   -0.48483  -0.47416  -0.46379  -0.46164  -0.45207
 Alpha  occ. eigenvalues --   -0.44655  -0.44022  -0.42710  -0.42381  -0.41622
 Alpha  occ. eigenvalues --   -0.40523  -0.40048  -0.39143  -0.38894  -0.36478
 Alpha  occ. eigenvalues --   -0.36399  -0.36127  -0.35733  -0.35644  -0.34601
 Alpha  occ. eigenvalues --   -0.33581  -0.31772  -0.28362  -0.27198  -0.26931
 Alpha  occ. eigenvalues --   -0.20123
 Alpha virt. eigenvalues --   -0.05430  -0.02505   0.00431   0.01047   0.02614
 Alpha virt. eigenvalues --    0.03427   0.03745   0.04536   0.04781   0.05005
 Alpha virt. eigenvalues --    0.05450   0.05832   0.06166   0.06281   0.06847

  Beta  occ. eigenvalues --  -89.28823 -89.08214 -19.24729 -19.24261 -19.21199
  Beta  occ. eigenvalues --  -14.47320 -10.29838 -10.29717 -10.29213 -10.28806
  Beta  occ. eigenvalues --  -10.26174 -10.24908 -10.23126 -10.22693 -10.22602
  Beta  occ. eigenvalues --  -10.22410  -8.22138  -8.04457  -6.15859  -6.15818
  Beta  occ. eigenvalues --   -6.15703  -5.98299  -5.97918  -5.97198  -1.14665
  Beta  occ. eigenvalues --   -1.10864  -1.04430  -0.92346  -0.85729  -0.83944
  Beta  occ. eigenvalues --   -0.82144  -0.77071  -0.73851  -0.71805  -0.71086
  Beta  occ. eigenvalues --   -0.70156  -0.64439  -0.62341  -0.58644  -0.55898
  Beta  occ. eigenvalues --   -0.53034  -0.51814  -0.51024  -0.50420  -0.48392
  Beta  occ. eigenvalues --   -0.47499  -0.47160  -0.46370  -0.46096  -0.44951
  Beta  occ. eigenvalues --   -0.44303  -0.43890  -0.42500  -0.41587  -0.41126
  Beta  occ. eigenvalues --   -0.40213  -0.40014  -0.38792  -0.37650  -0.36345
  Beta  occ. eigenvalues --   -0.36090  -0.35702  -0.35648  -0.34574  -0.33579
  Beta  occ. eigenvalues --   -0.32735  -0.31769  -0.28270  -0.26744  -0.26005
  Beta virt. eigenvalues --   -0.05432  -0.03772  -0.02459   0.00442   0.01053
  Beta virt. eigenvalues --    0.02634   0.03448   0.03784   0.04570   0.04870
  Beta virt. eigenvalues --    0.05040   0.05477   0.05877   0.06195   0.06311

 Mulliken charges and spin densities:
               1          2
     1  O   -0.516605   0.481423
     2  N   -0.027561   0.502378
     3  C    0.225459  -0.037322
     4  C   -0.235863  -0.000079
     5  C    0.087264   0.002486
     6  C   -0.416109  -0.000724
     7  S   -0.022417   0.000759
     8  C    0.227613  -0.035052
     9  C   -0.318713   0.021868
    10  C   -0.337930   0.024201
    11  C   -0.338085   0.023287
    12  C   -0.327451   0.022798
    13  H    0.152532  -0.000687
    14  H    0.201499  -0.000107
    15  H    0.165751   0.000119
    16  H    0.127705  -0.001376
    17  H    0.109911   0.001841
    18  H    0.140634  -0.001296
    19  H    0.151490  -0.001290
    20  H    0.107602   0.000728
    21  H    0.117549  -0.001082
    22  H    0.115860  -0.001141
    23  H    0.118789   0.000336
    24  H    0.147250  -0.001219
    25  H    0.137271  -0.001277
    26  H    0.117169   0.001884
    27  H    0.128546  -0.001450
    28  S    0.891344  -0.000074
    29  O   -0.510728   0.000025
    30  O   -0.570730   0.000049
    31  C   -0.395126  -0.000004
    32  H    0.177389  -0.000002
    33  H    0.186152   0.000004
    34  H    0.182541  -0.000001
 Sum of Mulliken charges =  -0.00000   1.00000

 Dipole moment (field-independent basis, Debye):
    X=              4.2505    Y=              1.8572    Z=             -2.0473  Tot=              5.0702
 Quadrupole moment (field-independent basis, Debye-Ang):
   XX=           -108.2528   YY=           -109.0644   ZZ=           -115.9241
   XY=              5.7167   XZ=              6.3622   YZ=             -0.6189

 Normal termination of Gaussian 16 at Mon Jun 17 21:30:45 2019.
