 Gaussian 16, Revision B.01,
 Gaussian 16:  AM64L-G16RevB.01 20-Dec-2017

 -----------------
 #p gen 6d pbe1pbe
 -----------------

 ------------------
 start preoptimized
 ------------------
 Symbolic Z-matrix:
 Charge =  0 Multiplicity = 2

                         Standard orientation:
 ---------------------------------------------------------------------
 Center     Atomic      Atomic             Coordinates (Angstroms)
 Number     Number       Type             X           Y           Z
 ---------------------------------------------------------------------
      1          8           0       -3.670564    0.174140    1.037424
      2          7           0       -2.643410    0.050496    0.306698
      3          6           0       -2.172902   -1.262735   -0.177457
      4          6           0       -0.861447   -0.862075   -0.783233
      5          6           0       -0.593554    0.441407   -0.649013
      6          6           0        0.615032    1.120888   -1.191368
      7         16           0        1.950185    1.447213    0.039729
      8          6           0       -1.699707    1.169293    0.088439
      9          6           0       -1.283180    1.747218    1.442859
     10          6           0       -2.378990    2.244945   -0.766444
     11          6           0       -3.153455   -1.820219   -1.212592
     12          6           0       -2.024575   -2.225200    1.005364
     13          1           0       -0.206911   -1.577266   -1.275605
     14          1           0        1.072368    0.534555   -1.990074
     15          1           0        0.391867    2.120645   -1.580048
     16          1           0       -0.751456    1.002966    2.040850
     17          1           0       -0.631082    2.617332    1.311695
     18          1           0       -2.183319    2.058278    1.981597
     19          1           0       -3.291396    2.581663   -0.261154
     20          1           0       -1.723826    3.112978   -0.901508
     21          1           0       -2.651349    1.851858   -1.750644
     22          1           0       -3.247757   -1.142425   -2.069269
     23          1           0       -2.808713   -2.796790   -1.575576
     24          1           0       -4.139691   -1.944288   -0.754238
     25          1           0       -2.994314   -2.335386    1.501967
     26          1           0       -1.689924   -3.207721    0.653683
     27          1           0       -1.295890   -1.850395    1.728340
     28         16           0        2.752311   -0.535291    0.111690
     29          8           0        2.321008   -1.213862    1.352867
     30          8           0        2.498451   -1.172293   -1.203358
     31          6           0        4.509073   -0.193094    0.248810
     32          1           0        4.667875    0.418130    1.141110
     33          1           0        4.985882   -1.170009    0.360401
     34          1           0        4.832634    0.315179   -0.658778
 ---------------------------------------------------------------------

 SCF Done:  E(UPBE1PBE) =  -1467.54843509     A.U. after   16 cycles

 The electronic state is 2-A.
 Alpha  occ. eigenvalues --  -89.28801 -89.08190 -19.24749 -19.24221 -19.22633
 Alpha  occ. eigenvalues --  -14.48513 -10.29734 -10.29700 -10.29121 -10.28715
 Alpha  occ. eigenvalues --  -10.26126 -10.24855 -10.23324 -10.22851 -10.22564
 Alpha  occ. eigenvalues --  -10.22313  -8.22120  -8.04433  -6.15843  -6.15799
 Alpha  occ. eigenvalues --   -6.15685  -5.98274  -5.97898  -5.97174  -1.14720
 Alpha  occ. eigenvalues --   -1.13500  -1.04481  -0.93290  -0.85924  -0.84030
 Alpha  occ. eigenvalues --   -0.82243  -0.77237  -0.74913  -0.72102  -0.71234
 Alpha  occ. eigenvalues --   -0.70587  -0.64472  -0.62456  -0.58971  -0.56422
 Alpha  occ. eigenvalues --   -0.53158  -0.51829  -0.51305  -0.50749  -0.50198
 Alpha  occ. eigenvalues --   -0.48514  -0.47406  -0.46360  -0.46177  -0.45129
 Alpha  occ. eigenvalues --   -0.44651  -0.43956  -0.42780  -0.42437  -0.41664
 Alpha  occ. eigenvalues --   -0.40505  -0.40092  -0.39049  -0.38869  -0.36500
 Alpha  occ. eigenvalues --   -0.36362  -0.36187  -0.35748  -0.35656  -0.34538
 Alpha  occ. eigenvalues --   -0.33588  -0.31776  -0.28316  -0.27228  -0.26894
 Alpha  occ. eigenvalues --   -0.20171
 Alpha virt. eigenvalues --   -0.05450  -0.02449   0.00471   0.01073   0.02634
 Alpha virt. eigenvalues --    0.03409   0.03690   0.04586   0.04818   0.04990
 Alpha virt. eigenvalues --    0.05446   0.05803   0.06160   0.06289   0.06851

  Beta  occ. eigenvalues --  -89.28801 -89.08190 -19.24749 -19.24221 -19.21200
  Beta  occ. eigenvalues --  -14.47325 -10.29735 -10.29700 -10.29185 -10.28779
  Beta  occ. eigenvalues --  -10.26124 -10.24853 -10.23272 -10.22800 -10.22517
  Beta  occ. eigenvalues --  -10.22265  -8.22120  -8.04433  -6.15843  -6.15799
  Beta  occ. eigenvalues --   -6.15685  -5.98274  -5.97898  -5.97174  -1.14720
  Beta  occ. eigenvalues --   -1.10868  -1.04481  -0.92336  -0.85732  -0.83926
  Beta  occ. eigenvalues --   -0.82111  -0.77040  -0.73845  -0.71851  -0.71104
  Beta  occ. eigenvalues --   -0.70133  -0.64419  -0.62328  -0.58594  -0.55914
  Beta  occ. eigenvalues --   -0.53067  -0.51823  -0.51017  -0.50414  -0.48342
  Beta  occ. eigenvalues --   -0.47522  -0.47177  -0.46343  -0.46112  -0.44978
  Beta  occ. eigenvalues --   -0.44262  -0.43801  -0.42504  -0.41648  -0.41194
  Beta  occ. eigenvalues --   -0.40203  -0.40033  -0.38718  -0.37665  -0.36321
  Beta  occ. eigenvalues --   -0.36129  -0.35721  -0.35696  -0.34510  -0.33584
  Beta  occ. eigenvalues --   -0.32705  -0.31771  -0.28236  -0.26719  -0.26002
  Beta virt. eigenvalues --   -0.05451  -0.03830  -0.02412   0.00484   0.01078
  Beta virt. eigenvalues --    0.02655   0.03437   0.03728   0.04627   0.04909
  Beta virt. eigenvalues --    0.05021   0.05471   0.05845   0.06188   0.06314

 Mulliken charges and spin densities:
               1          2
     1  O   -0.518702   0.482923
     2  N   -0.014106   0.500084
     3  C    0.201613  -0.037118
     4  C   -0.220495  -0.000162
     5  C    0.100920   0.002831
     6  C   -0.417791  -0.000311
     7  S   -0.019676   0.000377
     8  C    0.206470  -0.035235
     9  C   -0.311284   0.024696
    10  C   -0.344589   0.021132
    11  C   -0.341993   0.021484
    12  C   -0.321091   0.025485
    13  H    0.152902  -0.000824
    14  H    0.203323   0.000052
    15  H    0.165360   0.000031
    16  H    0.126011  -0.001140
    17  H    0.108928   0.000774
    18  H    0.145436  -0.001312
    19  H    0.147181  -0.001232
    20  H    0.108530   0.001744
    21  H    0.119028  -0.001260
    22  H    0.118169  -0.001391
    23  H    0.120670   0.001447
    24  H    0.142639  -0.001176
    25  H    0.143102  -0.001268
    26  H    0.114947   0.000744
    27  H    0.124821  -0.001261
    28  S    0.890350  -0.000081
    29  O   -0.511862   0.000001
    30  O   -0.568780  -0.000023
    31  C   -0.395571  -0.000012
    32  H    0.176890   0.000001
    33  H    0.186244   0.000000
    34  H    0.182405   0.000001
 Sum of Mulliken charges =  -0.00000   1.00000

 Dipole moment (field-independent basis, Debye):
    X=              4.1631    Y=              1.8401    Z=             -2.2500  Tot=              5.0774
 Quadrupole moment (field-independent basis, Debye-Ang):
   XX=           -107.1607   YY=           -109.0330   ZZ=           -116.4000
   XY=              5.2908   XZ=              7.1225   YZ=             -0.6328

 Normal termination of Gaussian 16 at Mon Jun 17 21:28:00 2019.
