 Gaussian 16, Revision B.01,
 Gaussian 16:  AM64L-G16RevB.01 20-Dec-2017

 -----------------
 #p gen 6d pbe1pbe
 -----------------

 ------------------
 start preoptimized
 ------------------
 Symbolic Z-matrix:
 Charge =  0 Multiplicity = 2

                         Standard orientation:
 ---------------------------------------------------------------------
 Center     Atomic      Atomic             Coordinates (Angstroms)
 Number     Number       Type             X           Y           Z
 ---------------------------------------------------------------------
      1          8           0       -3.757840    0.197780    0.886256
      2          7           0       -2.608239    0.029651    0.385724
      3          6           0       -2.158672   -1.272917   -0.151188
      4          6           0       -0.880819   -0.853485   -0.816724
      5          6           0       -0.608115    0.446590   -0.657263
      6          6           0        0.599778    1.125434   -1.201827
      7         16           0        1.939506    1.445137    0.027052
      8          6           0       -1.694464    1.161552    0.117833
      9          6           0       -1.235541    1.762853    1.449920
     10          6           0       -2.430317    2.213552   -0.716276
     11          6           0       -3.208943   -1.817232   -1.122865
     12          6           0       -1.914204   -2.261333    0.993970
     13          1           0       -0.240116   -1.562014   -1.334990
     14          1           0        1.055719    0.539642   -2.006524
     15          1           0        0.380117    2.128386   -1.586371
     16          1           0       -0.664250    1.036358    2.036922
     17          1           0       -0.607046    2.645021    1.290149
     18          1           0       -2.119898    2.066304    2.021234
     19          1           0       -3.322389    2.537764   -0.173602
     20          1           0       -1.793980    3.088848   -0.889566
     21          1           0       -2.739291    1.803147   -1.683977
     22          1           0       -3.367814   -1.127038   -1.956113
     23          1           0       -2.890744   -2.783462   -1.524167
     24          1           0       -4.158650   -1.949339   -0.592416
     25          1           0       -2.842439   -2.408214    1.557775
     26          1           0       -1.586838   -3.228699    0.599179
     27          1           0       -1.140514   -1.886938    1.674270
     28         16           0        2.759946   -0.529012    0.103320
     29          8           0        2.342310   -1.207225    1.347720
     30          8           0        2.507260   -1.178958   -1.209393
     31          6           0        4.511058   -0.159974    0.236157
     32          1           0        4.661955    0.458243    1.121846
     33          1           0        5.002127   -1.129848    0.351897
     34          1           0        4.828083    0.343275   -0.678653
 ---------------------------------------------------------------------

 SCF Done:  E(UPBE1PBE) =  -1467.54846983     A.U. after   16 cycles

 The electronic state is 2-A.
 Alpha  occ. eigenvalues --  -89.28822 -89.08213 -19.24730 -19.24259 -19.22617
 Alpha  occ. eigenvalues --  -14.48510 -10.29831 -10.29716 -10.29144 -10.28735
 Alpha  occ. eigenvalues --  -10.26172 -10.24907 -10.23179 -10.22736 -10.22653
 Alpha  occ. eigenvalues --  -10.22456  -8.22137  -8.04455  -6.15858  -6.15817
 Alpha  occ. eigenvalues --   -6.15702  -5.98298  -5.97918  -5.97197  -1.14667
 Alpha  occ. eigenvalues --   -1.13563  -1.04432  -0.93300  -0.85921  -0.84048
 Alpha  occ. eigenvalues --   -0.82279  -0.77268  -0.74915  -0.72049  -0.71216
 Alpha  occ. eigenvalues --   -0.70621  -0.64493  -0.62471  -0.59026  -0.56410
 Alpha  occ. eigenvalues --   -0.53122  -0.51822  -0.51303  -0.50769  -0.50222
 Alpha  occ. eigenvalues --   -0.48487  -0.47419  -0.46378  -0.46167  -0.45206
 Alpha  occ. eigenvalues --   -0.44656  -0.44022  -0.42716  -0.42392  -0.41628
 Alpha  occ. eigenvalues --   -0.40525  -0.40047  -0.39155  -0.38902  -0.36481
 Alpha  occ. eigenvalues --   -0.36398  -0.36129  -0.35735  -0.35646  -0.34599
 Alpha  occ. eigenvalues --   -0.33581  -0.31772  -0.28360  -0.27194  -0.26928
 Alpha  occ. eigenvalues --   -0.20085
 Alpha virt. eigenvalues --   -0.05430  -0.02502   0.00433   0.01049   0.02615
 Alpha virt. eigenvalues --    0.03427   0.03744   0.04538   0.04782   0.05004
 Alpha virt. eigenvalues --    0.05451   0.05831   0.06167   0.06281   0.06848

  Beta  occ. eigenvalues --  -89.28822 -89.08212 -19.24730 -19.24259 -19.21189
  Beta  occ. eigenvalues --  -14.47315 -10.29833 -10.29716 -10.29210 -10.28800
  Beta  occ. eigenvalues --  -10.26171 -10.24903 -10.23131 -10.22685 -10.22607
  Beta  occ. eigenvalues --  -10.22402  -8.22137  -8.04455  -6.15858  -6.15817
  Beta  occ. eigenvalues --   -6.15702  -5.98298  -5.97917  -5.97197  -1.14667
  Beta  occ. eigenvalues --   -1.10929  -1.04432  -0.92354  -0.85730  -0.83946
  Beta  occ. eigenvalues --   -0.82142  -0.77070  -0.73849  -0.71808  -0.71090
  Beta  occ. eigenvalues --   -0.70152  -0.64439  -0.62342  -0.58647  -0.55897
  Beta  occ. eigenvalues --   -0.53035  -0.51814  -0.51023  -0.50420  -0.48390
  Beta  occ. eigenvalues --   -0.47505  -0.47165  -0.46368  -0.46099  -0.44955
  Beta  occ. eigenvalues --   -0.44306  -0.43889  -0.42502  -0.41593  -0.41134
  Beta  occ. eigenvalues --   -0.40215  -0.40013  -0.38804  -0.37655  -0.36345
  Beta  occ. eigenvalues --   -0.36092  -0.35703  -0.35651  -0.34572  -0.33580
  Beta  occ. eigenvalues --   -0.32757  -0.31769  -0.28269  -0.26743  -0.26001
  Beta virt. eigenvalues --   -0.05432  -0.03738  -0.02455   0.00444   0.01054
  Beta virt. eigenvalues --    0.02635   0.03448   0.03783   0.04572   0.04871
  Beta virt. eigenvalues --    0.05039   0.05478   0.05876   0.06195   0.06311

 Mulliken charges and spin densities:
               1          2
     1  O   -0.517494   0.481078
     2  N   -0.025243   0.503116
     3  C    0.224509  -0.037636
     4  C   -0.235552  -0.000102
     5  C    0.087627   0.002405
     6  C   -0.416249  -0.000719
     7  S   -0.022287   0.000754
     8  C    0.226757  -0.035396
     9  C   -0.318464   0.022056
    10  C   -0.338297   0.024176
    11  C   -0.338356   0.023319
    12  C   -0.327242   0.022985
    13  H    0.152537  -0.000728
    14  H    0.201574  -0.000106
    15  H    0.165728   0.000117
    16  H    0.127627  -0.001372
    17  H    0.109880   0.001817
    18  H    0.140784  -0.001298
    19  H    0.151296  -0.001289
    20  H    0.107654   0.000783
    21  H    0.117581  -0.001093
    22  H    0.115922  -0.001159
    23  H    0.118891   0.000390
    24  H    0.147049  -0.001218
    25  H    0.137461  -0.001278
    26  H    0.117085   0.001861
    27  H    0.128393  -0.001454
    28  S    0.891374  -0.000074
    29  O   -0.510809   0.000024
    30  O   -0.570651   0.000047
    31  C   -0.395145  -0.000004
    32  H    0.177369  -0.000002
    33  H    0.186156   0.000003
    34  H    0.182535  -0.000001
 Sum of Mulliken charges =  -0.00000   1.00000

 Dipole moment (field-independent basis, Debye):
    X=              4.2468    Y=              1.8562    Z=             -2.0554  Tot=              5.0700
 Quadrupole moment (field-independent basis, Debye-Ang):
   XX=           -108.2130   YY=           -109.0623   ZZ=           -115.9412
   XY=              5.7010   XZ=              6.3953   YZ=             -0.6201

 Normal termination of Gaussian 16 at Mon Jun 17 21:28:03 2019.
