 Gaussian 16, Revision B.01,
 Gaussian 16:  AM64L-G16RevB.01 20-Dec-2017

 -----------------
 #p gen 6d pbe1pbe
 -----------------

 ------------------
 start preoptimized
 ------------------
 Symbolic Z-matrix:
 Charge =  0 Multiplicity = 2

                         Standard orientation:
 ---------------------------------------------------------------------
 Center     Atomic      Atomic             Coordinates (Angstroms)
 Number     Number       Type             X           Y           Z
 ---------------------------------------------------------------------
      1          8           0       -3.768874    0.200578    0.867440
      2          7           0       -2.603782    0.027047    0.395596
      3          6           0       -2.156867   -1.274188   -0.147954
      4          6           0       -0.883269   -0.852404   -0.820931
      5          6           0       -0.609952    0.447251   -0.658266
      6          6           0        0.597849    1.126049   -1.203085
      7         16           0        1.938159    1.444885    0.025524
      8          6           0       -1.693796    1.160577    0.121559
      9          6           0       -1.229599    1.764768    1.450845
     10          6           0       -2.436707    2.209624   -0.709865
     11          6           0       -3.215822   -1.816851   -1.111673
     12          6           0       -1.900378   -2.265849    0.992398
     13          1           0       -0.244313   -1.560088   -1.342458
     14          1           0        1.053612    0.540360   -2.008557
     15          1           0        0.378617    2.129419   -1.587075
     16          1           0       -0.653371    1.040492    2.036411
     17          1           0       -0.604087    2.648435    1.287543
     18          1           0       -2.111958    2.067253    2.026239
     19          1           0       -3.326206    2.532263   -0.162512
     20          1           0       -1.802758    3.085820   -0.887890
     21          1           0       -2.750239    1.797073   -1.675493
     22          1           0       -3.382765   -1.125105   -1.941925
     23          1           0       -2.900967   -2.781796   -1.517790
     24          1           0       -4.160908   -1.949955   -0.572236
     25          1           0       -2.823357   -2.417308    1.564583
     26          1           0       -1.573955   -3.231317    0.592180
     27          1           0       -1.121088   -1.891510    1.667346
     28         16           0        2.760903   -0.528207    0.102234
     29          8           0        2.344987   -1.206424    1.347006
     30          8           0        2.508371   -1.179717   -1.210211
     31          6           0        4.511293   -0.155809    0.234542
     32          1           0        4.661194    0.463241    1.119433
     33          1           0        5.004152   -1.124796    0.350748
     34          1           0        4.827492    0.346850   -0.681149
 ---------------------------------------------------------------------

 SCF Done:  E(UPBE1PBE) =  -1467.54822331     A.U. after   16 cycles

 The electronic state is 2-A.
 Alpha  occ. eigenvalues --  -89.28826 -89.08217 -19.24728 -19.24265 -19.22653
 Alpha  occ. eigenvalues --  -14.48522 -10.29845 -10.29719 -10.29157 -10.28753
 Alpha  occ. eigenvalues --  -10.26183 -10.24920 -10.23164 -10.22760 -10.22637
 Alpha  occ. eigenvalues --  -10.22484  -8.22140  -8.04460  -6.15861  -6.15820
 Alpha  occ. eigenvalues --   -6.15705  -5.98302  -5.97921  -5.97201  -1.14661
 Alpha  occ. eigenvalues --   -1.13357  -1.04427  -0.93279  -0.85919  -0.84042
 Alpha  occ. eigenvalues --   -0.82284  -0.77274  -0.74923  -0.72034  -0.71205
 Alpha  occ. eigenvalues --   -0.70632  -0.64491  -0.62469  -0.59018  -0.56413
 Alpha  occ. eigenvalues --   -0.53117  -0.51822  -0.51306  -0.50773  -0.50161
 Alpha  occ. eigenvalues --   -0.48474  -0.47409  -0.46381  -0.46159  -0.45208
 Alpha  occ. eigenvalues --   -0.44652  -0.44022  -0.42698  -0.42355  -0.41607
 Alpha  occ. eigenvalues --   -0.40519  -0.40052  -0.39117  -0.38877  -0.36471
 Alpha  occ. eigenvalues --   -0.36400  -0.36122  -0.35730  -0.35642  -0.34605
 Alpha  occ. eigenvalues --   -0.33581  -0.31772  -0.28366  -0.27206  -0.26938
 Alpha  occ. eigenvalues --   -0.20207
 Alpha virt. eigenvalues --   -0.05429  -0.02512   0.00427   0.01045   0.02611
 Alpha virt. eigenvalues --    0.03427   0.03747   0.04531   0.04780   0.05007
 Alpha virt. eigenvalues --    0.05447   0.05833   0.06165   0.06280   0.06844

  Beta  occ. eigenvalues --  -89.28826 -89.08216 -19.24728 -19.24265 -19.21221
  Beta  occ. eigenvalues --  -14.47330 -10.29847 -10.29719 -10.29221 -10.28817
  Beta  occ. eigenvalues --  -10.26181 -10.24916 -10.23117 -10.22709 -10.22593
  Beta  occ. eigenvalues --  -10.22429  -8.22140  -8.04459  -6.15861  -6.15820
  Beta  occ. eigenvalues --   -6.15705  -5.98302  -5.97921  -5.97201  -1.14661
  Beta  occ. eigenvalues --   -1.10721  -1.04427  -0.92327  -0.85726  -0.83940
  Beta  occ. eigenvalues --   -0.82146  -0.77072  -0.73858  -0.71797  -0.71080
  Beta  occ. eigenvalues --   -0.70164  -0.64437  -0.62339  -0.58637  -0.55900
  Beta  occ. eigenvalues --   -0.53031  -0.51814  -0.51025  -0.50421  -0.48394
  Beta  occ. eigenvalues --   -0.47487  -0.47149  -0.46372  -0.46090  -0.44942
  Beta  occ. eigenvalues --   -0.44296  -0.43894  -0.42494  -0.41575  -0.41110
  Beta  occ. eigenvalues --   -0.40210  -0.40017  -0.38765  -0.37639  -0.36345
  Beta  occ. eigenvalues --   -0.36087  -0.35701  -0.35639  -0.34577  -0.33579
  Beta  occ. eigenvalues --   -0.32685  -0.31769  -0.28272  -0.26745  -0.26012
  Beta virt. eigenvalues --   -0.05431  -0.03851  -0.02467   0.00437   0.01050
  Beta virt. eigenvalues --    0.02632   0.03447   0.03786   0.04564   0.04868
  Beta virt. eigenvalues --    0.05043   0.05474   0.05878   0.06193   0.06310

 Mulliken charges and spin densities:
               1          2
     1  O   -0.514662   0.482223
     2  N   -0.032566   0.500704
     3  C    0.227302  -0.036630
     4  C   -0.236388  -0.000027
     5  C    0.086595   0.002669
     6  C   -0.415809  -0.000730
     7  S   -0.022683   0.000767
     8  C    0.229314  -0.034292
     9  C   -0.319202   0.021481
    10  C   -0.337171   0.024223
    11  C   -0.337515   0.023194
    12  C   -0.327858   0.022414
    13  H    0.152521  -0.000599
    14  H    0.201349  -0.000107
    15  H    0.165799   0.000122
    16  H    0.127859  -0.001382
    17  H    0.109974   0.001882
    18  H    0.140347  -0.001291
    19  H    0.151877  -0.001292
    20  H    0.107493   0.000614
    21  H    0.117497  -0.001058
    22  H    0.115752  -0.001104
    23  H    0.118577   0.000226
    24  H    0.147653  -0.001219
    25  H    0.136904  -0.001273
    26  H    0.117338   0.001923
    27  H    0.128848  -0.001442
    28  S    0.891262  -0.000074
    29  O   -0.510558   0.000025
    30  O   -0.570888   0.000055
    31  C   -0.395090  -0.000003
    32  H    0.177429  -0.000003
    33  H    0.186146   0.000004
    34  H    0.182552  -0.000001
 Sum of Mulliken charges =  -0.00000   1.00000

 Dipole moment (field-independent basis, Debye):
    X=              4.2577    Y=              1.8593    Z=             -2.0311  Tot=              5.0705
 Quadrupole moment (field-independent basis, Debye-Ang):
   XX=           -108.3309   YY=           -109.0692   ZZ=           -115.8907
   XY=              5.7477   XZ=              6.2957   YZ=             -0.6163

 Normal termination of Gaussian 16 at Wed Jun 12 15:32:00 2019.
