 Gaussian 16, Revision B.01,
 Gaussian 16:  AM64L-G16RevB.01 20-Dec-2017

 -----------------
 #p gen 6d pbe1pbe
 -----------------

 ------------------
 start preoptimized
 ------------------
 Symbolic Z-matrix:
 Charge =  0 Multiplicity = 2

                         Standard orientation:
 ---------------------------------------------------------------------
 Center     Atomic      Atomic             Coordinates (Angstroms)
 Number     Number       Type             X           Y           Z
 ---------------------------------------------------------------------
      1          8           0       -3.750500    0.195896    0.898811
      2          7           0       -2.611202    0.031387    0.379142
      3          6           0       -2.159872   -1.272069   -0.153350
      4          6           0       -0.879189   -0.854204   -0.813922
      5          6           0       -0.606892    0.446151   -0.656590
      6          6           0        0.601061    1.125030   -1.200983
      7         16           0        1.940402    1.445306    0.028077
      8          6           0       -1.694907    1.162201    0.115355
      9          6           0       -1.239503    1.761572    1.449308
     10          6           0       -2.426054    2.216171   -0.720533
     11          6           0       -3.204350   -1.817485   -1.130328
     12          6           0       -1.923417   -2.258322    0.994999
     13          1           0       -0.237324   -1.563295   -1.330017
     14          1           0        1.057120    0.539174   -2.005166
     15          1           0        0.381113    2.127705   -1.585892
     16          1           0       -0.671506    1.033598    2.037260
     17          1           0       -0.609025    2.642740    1.291896
     18          1           0       -2.125189    2.065664    2.017903
     19          1           0       -3.319837    2.541429   -0.180978
     20          1           0       -1.788129    3.090864   -0.890661
     21          1           0       -2.731987    1.807197   -1.689616
     22          1           0       -3.357840   -1.128326   -1.965566
     23          1           0       -2.883925   -2.784574   -1.528424
     24          1           0       -4.157131   -1.948927   -0.605875
     25          1           0       -2.855149   -2.402150    1.553215
     26          1           0       -1.595427   -3.226953    0.603822
     27          1           0       -1.153464   -1.883889    1.678865
     28         16           0        2.759308   -0.529547    0.104039
     29          8           0        2.340526   -1.207762    1.348189
     30          8           0        2.506521   -1.178444   -1.208855
     31          6           0        4.510899   -0.162748    0.237230
     32          1           0        4.662460    0.454910    1.123454
     33          1           0        5.000776   -1.133213    0.352652
     34          1           0        4.828474    0.340900   -0.676991
 ---------------------------------------------------------------------

 SCF Done:  E(UPBE1PBE) =  -1467.54858946     A.U. after   16 cycles

 The electronic state is 2-A.
 Alpha  occ. eigenvalues --  -89.28820 -89.08210 -19.24731 -19.24255 -19.22598
 Alpha  occ. eigenvalues --  -14.48504 -10.29822 -10.29714 -10.29136 -10.28725
 Alpha  occ. eigenvalues --  -10.26166 -10.24899 -10.23190 -10.22721 -10.22664
 Alpha  occ. eigenvalues --  -10.22439  -8.22135  -8.04453  -6.15856  -6.15815
 Alpha  occ. eigenvalues --   -6.15700  -5.98295  -5.97915  -5.97194  -1.14671
 Alpha  occ. eigenvalues --   -1.13675  -1.04436  -0.93311  -0.85923  -0.84051
 Alpha  occ. eigenvalues --   -0.82275  -0.77264  -0.74911  -0.72058  -0.71222
 Alpha  occ. eigenvalues --   -0.70615  -0.64493  -0.62472  -0.59030  -0.56409
 Alpha  occ. eigenvalues --   -0.53125  -0.51823  -0.51301  -0.50766  -0.50256
 Alpha  occ. eigenvalues --   -0.48494  -0.47424  -0.46376  -0.46171  -0.45204
 Alpha  occ. eigenvalues --   -0.44659  -0.44021  -0.42728  -0.42413  -0.41640
 Alpha  occ. eigenvalues --   -0.40528  -0.40045  -0.39174  -0.38915  -0.36487
 Alpha  occ. eigenvalues --   -0.36397  -0.36134  -0.35737  -0.35648  -0.34595
 Alpha  occ. eigenvalues --   -0.33582  -0.31772  -0.28356  -0.27188  -0.26921
 Alpha  occ. eigenvalues --   -0.20020
 Alpha virt. eigenvalues --   -0.05431  -0.02495   0.00438   0.01051   0.02617
 Alpha virt. eigenvalues --    0.03427   0.03741   0.04542   0.04784   0.05002
 Alpha virt. eigenvalues --    0.05453   0.05829   0.06168   0.06282   0.06850

  Beta  occ. eigenvalues --  -89.28820 -89.08210 -19.24731 -19.24255 -19.21171
  Beta  occ. eigenvalues --  -14.47307 -10.29824 -10.29714 -10.29203 -10.28791
  Beta  occ. eigenvalues --  -10.26165 -10.24896 -10.23141 -10.22669 -10.22618
  Beta  occ. eigenvalues --  -10.22385  -8.22135  -8.04453  -6.15856  -6.15815
  Beta  occ. eigenvalues --   -6.15700  -5.98295  -5.97915  -5.97194  -1.14671
  Beta  occ. eigenvalues --   -1.11042  -1.04436  -0.92369  -0.85733  -0.83948
  Beta  occ. eigenvalues --   -0.82140  -0.77069  -0.73844  -0.71815  -0.71095
  Beta  occ. eigenvalues --   -0.70145  -0.64440  -0.62343  -0.58652  -0.55896
  Beta  occ. eigenvalues --   -0.53038  -0.51814  -0.51022  -0.50419  -0.48388
  Beta  occ. eigenvalues --   -0.47515  -0.47173  -0.46366  -0.46104  -0.44963
  Beta  occ. eigenvalues --   -0.44311  -0.43884  -0.42507  -0.41605  -0.41148
  Beta  occ. eigenvalues --   -0.40217  -0.40012  -0.38824  -0.37664  -0.36344
  Beta  occ. eigenvalues --   -0.36095  -0.35704  -0.35659  -0.34567  -0.33580
  Beta  occ. eigenvalues --   -0.32796  -0.31769  -0.28266  -0.26742  -0.25995
  Beta virt. eigenvalues --   -0.05433  -0.03677  -0.02448   0.00449   0.01057
  Beta virt. eigenvalues --    0.02638   0.03449   0.03780   0.04577   0.04874
  Beta virt. eigenvalues --    0.05037   0.05480   0.05875   0.06197   0.06311

 Mulliken charges and spin densities:
               1          2
     1  O   -0.519098   0.480493
     2  N   -0.020994   0.504391
     3  C    0.222564  -0.038193
     4  C   -0.234833  -0.000141
     5  C    0.088412   0.002265
     6  C   -0.416507  -0.000706
     7  S   -0.022034   0.000740
     8  C    0.225033  -0.036007
     9  C   -0.317957   0.022421
    10  C   -0.339004   0.024097
    11  C   -0.338869   0.023354
    12  C   -0.326815   0.023347
    13  H    0.152551  -0.000802
    14  H    0.201726  -0.000104
    15  H    0.165684   0.000113
    16  H    0.127471  -0.001363
    17  H    0.109815   0.001765
    18  H    0.141099  -0.001302
    19  H    0.150910  -0.001287
    20  H    0.107754   0.000893
    21  H    0.117655  -0.001116
    22  H    0.116063  -0.001194
    23  H    0.119089   0.000497
    24  H    0.146646  -0.001217
    25  H    0.137856  -0.001281
    26  H    0.116915   0.001809
    27  H    0.128083  -0.001457
    28  S    0.891408  -0.000075
    29  O   -0.510961   0.000023
    30  O   -0.570494   0.000041
    31  C   -0.395183  -0.000005
    32  H    0.177329  -0.000002
    33  H    0.186163   0.000003
    34  H    0.182523  -0.000001
 Sum of Mulliken charges =  -0.00000   1.00000

 Dipole moment (field-independent basis, Debye):
    X=              4.2395    Y=              1.8543    Z=             -2.0717  Tot=              5.0699
 Quadrupole moment (field-independent basis, Debye-Ang):
   XX=           -108.1320   YY=           -109.0582   ZZ=           -115.9763
   XY=              5.6690   XZ=              6.4613   YZ=             -0.6225

 Normal termination of Gaussian 16 at Wed Jun 12 15:28:56 2019.
