 Gaussian 16, Revision B.01,
 Gaussian 16:  AM64L-G16RevB.01 20-Dec-2017

 -----------------
 #p gen 6d pbe1pbe
 -----------------

 ------------------
 start preoptimized
 ------------------
 Symbolic Z-matrix:
 Charge =  0 Multiplicity = 2

                         Standard orientation:
 ---------------------------------------------------------------------
 Center     Atomic      Atomic             Coordinates (Angstroms)
 Number     Number       Type             X           Y           Z
 ---------------------------------------------------------------------
      1          8           0       -3.666966    0.173104    1.043747
      2          7           0       -2.644857    0.051366    0.303404
      3          6           0       -2.173486   -1.262310   -0.178567
      4          6           0       -0.860649   -0.862430   -0.781845
      5          6           0       -0.592952    0.441195   -0.648661
      6          6           0        0.615660    1.120714   -1.190916
      7         16           0        1.950626    1.447302    0.040276
      8          6           0       -1.699922    1.169613    0.087231
      9          6           0       -1.285169    1.746553    1.442579
     10          6           0       -2.376844    2.246253   -0.768489
     11          6           0       -3.151125   -1.820339   -1.216339
     12          6           0       -2.029164   -2.223695    1.005792
     13          1           0       -0.205541   -1.577895   -1.273146
     14          1           0        1.073054    0.534370   -1.989381
     15          1           0        0.392347    2.120344   -1.579756
     16          1           0       -0.755096    1.001561    2.041008
     17          1           0       -0.632097    2.616162    1.312621
     18          1           0       -2.185958    2.057926    1.979962
     19          1           0       -3.290088    2.583489   -0.264755
     20          1           0       -1.720906    3.113980   -0.901946
     21          1           0       -2.647671    1.853895   -1.753373
     22          1           0       -3.242737   -1.143059   -2.073972
     23          1           0       -2.805285   -2.797344   -1.577736
     24          1           0       -4.138866   -1.944070   -0.760997
     25          1           0       -3.000612   -2.332349    1.499589
     26          1           0       -1.694220   -3.206847    0.655894
     27          1           0       -1.302363   -1.848876    1.730541
     28         16           0        2.751994   -0.535546    0.112026
     29          8           0        2.320126   -1.214148    1.353058
     30          8           0        2.498087   -1.171991   -1.203128
     31          6           0        4.508987   -0.194466    0.249326
     32          1           0        4.668115    0.416453    1.141911
     33          1           0        4.985204   -1.171672    0.360728
     34          1           0        4.832817    0.314029   -0.657953
 ---------------------------------------------------------------------

 SCF Done:  E(UPBE1PBE) =  -1467.54835348     A.U. after   16 cycles

 The electronic state is 2-A.
 Alpha  occ. eigenvalues --  -89.28801 -89.08190 -19.24750 -19.24220 -19.22645
 Alpha  occ. eigenvalues --  -14.48517 -10.29730 -10.29700 -10.29124 -10.28719
 Alpha  occ. eigenvalues --  -10.26125 -10.24855 -10.23331 -10.22863 -10.22558
 Alpha  occ. eigenvalues --  -10.22310  -8.22120  -8.04433  -6.15843  -6.15798
 Alpha  occ. eigenvalues --   -6.15684  -5.98273  -5.97897  -5.97173  -1.14723
 Alpha  occ. eigenvalues --   -1.13432  -1.04483  -0.93283  -0.85923  -0.84026
 Alpha  occ. eigenvalues --   -0.82242  -0.77237  -0.74915  -0.72102  -0.71232
 Alpha  occ. eigenvalues --   -0.70588  -0.64469  -0.62454  -0.58965  -0.56424
 Alpha  occ. eigenvalues --   -0.53159  -0.51830  -0.51306  -0.50749  -0.50177
 Alpha  occ. eigenvalues --   -0.48512  -0.47402  -0.46359  -0.46175  -0.45124
 Alpha  occ. eigenvalues --   -0.44649  -0.43951  -0.42778  -0.42431  -0.41661
 Alpha  occ. eigenvalues --   -0.40502  -0.40095  -0.39031  -0.38859  -0.36499
 Alpha  occ. eigenvalues --   -0.36359  -0.36189  -0.35748  -0.35656  -0.34535
 Alpha  occ. eigenvalues --   -0.33588  -0.31777  -0.28314  -0.27234  -0.26895
 Alpha  occ. eigenvalues --   -0.20215
 Alpha virt. eigenvalues --   -0.05451  -0.02448   0.00472   0.01073   0.02634
 Alpha virt. eigenvalues --    0.03408   0.03688   0.04588   0.04820   0.04989
 Alpha virt. eigenvalues --    0.05445   0.05802   0.06159   0.06289   0.06851

  Beta  occ. eigenvalues --  -89.28801 -89.08190 -19.24750 -19.24220 -19.21211
  Beta  occ. eigenvalues --  -14.47331 -10.29732 -10.29700 -10.29187 -10.28782
  Beta  occ. eigenvalues --  -10.26124 -10.24852 -10.23279 -10.22811 -10.22511
  Beta  occ. eigenvalues --  -10.22262  -8.22120  -8.04432  -6.15843  -6.15798
  Beta  occ. eigenvalues --   -6.15684  -5.98273  -5.97897  -5.97173  -1.14723
  Beta  occ. eigenvalues --   -1.10799  -1.04483  -0.92326  -0.85731  -0.83923
  Beta  occ. eigenvalues --   -0.82110  -0.77038  -0.73847  -0.71851  -0.71102
  Beta  occ. eigenvalues --   -0.70135  -0.64417  -0.62326  -0.58586  -0.55916
  Beta  occ. eigenvalues --   -0.53068  -0.51824  -0.51017  -0.50414  -0.48339
  Beta  occ. eigenvalues --   -0.47517  -0.47173  -0.46342  -0.46110  -0.44976
  Beta  occ. eigenvalues --   -0.44255  -0.43795  -0.42501  -0.41646  -0.41191
  Beta  occ. eigenvalues --   -0.40201  -0.40034  -0.38700  -0.37662  -0.36319
  Beta  occ. eigenvalues --   -0.36130  -0.35723  -0.35695  -0.34507  -0.33584
  Beta  occ. eigenvalues --   -0.32679  -0.31772  -0.28234  -0.26718  -0.26006
  Beta virt. eigenvalues --   -0.05452  -0.03873  -0.02412   0.00485   0.01079
  Beta virt. eigenvalues --    0.02656   0.03436   0.03726   0.04629   0.04911
  Beta virt. eigenvalues --    0.05020   0.05470   0.05844   0.06187   0.06314

 Mulliken charges and spin densities:
               1          2
     1  O   -0.517936   0.483426
     2  N   -0.015564   0.499132
     3  C    0.200878  -0.036783
     4  C   -0.219700  -0.000147
     5  C    0.101561   0.002951
     6  C   -0.417799  -0.000286
     7  S   -0.019575   0.000356
     8  C    0.205765  -0.034907
     9  C   -0.310922   0.024702
    10  C   -0.344766   0.020936
    11  C   -0.342043   0.021327
    12  C   -0.320780   0.025476
    13  H    0.152930  -0.000791
    14  H    0.203392   0.000063
    15  H    0.165349   0.000026
    16  H    0.125968  -0.001125
    17  H    0.108874   0.000717
    18  H    0.145651  -0.001312
    19  H    0.147048  -0.001227
    20  H    0.108554   0.001763
    21  H    0.119098  -0.001261
    22  H    0.118257  -0.001389
    23  H    0.120720   0.001475
    24  H    0.142489  -0.001172
    25  H    0.143360  -0.001267
    26  H    0.114849   0.000680
    27  H    0.124700  -0.001243
    28  S    0.890291  -0.000082
    29  O   -0.511882  -0.000001
    30  O   -0.568700  -0.000025
    31  C   -0.395583  -0.000012
    32  H    0.176871   0.000001
    33  H    0.186248   0.000000
    34  H    0.182400   0.000001
 Sum of Mulliken charges =  -0.00000   1.00000

 Dipole moment (field-independent basis, Debye):
    X=              4.1599    Y=              1.8397    Z=             -2.2578  Tot=              5.0781
 Quadrupole moment (field-independent basis, Debye-Ang):
   XX=           -107.1152   YY=           -109.0330   ZZ=           -116.4193
   XY=              5.2729   XZ=              7.1481   YZ=             -0.6325

 Normal termination of Gaussian 16 at Mon Jun 17 21:30:45 2019.
