 Gaussian 16, Revision B.01,
 Gaussian 16:  AM64L-G16RevB.01 20-Dec-2017

 -----------------
 #p gen 6d pbe1pbe
 -----------------

 ------------------
 start preoptimized
 ------------------
 Symbolic Z-matrix:
 Charge =  0 Multiplicity = 2

                         Standard orientation:
 ---------------------------------------------------------------------
 Center     Atomic      Atomic             Coordinates (Angstroms)
 Number     Number       Type             X           Y           Z
 ---------------------------------------------------------------------
      1          8           0       -3.668765    0.173623    1.040585
      2          7           0       -2.644134    0.050931    0.305051
      3          6           0       -2.173194   -1.262522   -0.178012
      4          6           0       -0.861048   -0.862252   -0.782539
      5          6           0       -0.593253    0.441301   -0.648837
      6          6           0        0.615346    1.120801   -1.191142
      7         16           0        1.950405    1.447258    0.040003
      8          6           0       -1.699815    1.169453    0.087835
      9          6           0       -1.284174    1.746885    1.442719
     10          6           0       -2.377917    2.245599   -0.767467
     11          6           0       -3.152290   -1.820279   -1.214465
     12          6           0       -2.026869   -2.224447    1.005578
     13          1           0       -0.206226   -1.577581   -1.274375
     14          1           0        1.072712    0.534462   -1.989728
     15          1           0        0.392107    2.120494   -1.579902
     16          1           0       -0.753276    1.002264    2.040929
     17          1           0       -0.631589    2.616747    1.312158
     18          1           0       -2.184639    2.058102    1.980780
     19          1           0       -3.290742    2.582576   -0.262955
     20          1           0       -1.722366    3.113479   -0.901727
     21          1           0       -2.649510    1.852877   -1.752009
     22          1           0       -3.245247   -1.142742   -2.071621
     23          1           0       -2.806999   -2.797067   -1.576656
     24          1           0       -4.139279   -1.944179   -0.757618
     25          1           0       -2.997463   -2.333867    1.500779
     26          1           0       -1.692072   -3.207284    0.654789
     27          1           0       -1.299126   -1.849635    1.729441
     28         16           0        2.752152   -0.535418    0.111858
     29          8           0        2.320567   -1.214005    1.352963
     30          8           0        2.498269   -1.172142   -1.203243
     31          6           0        4.509030   -0.193780    0.249068
     32          1           0        4.667995    0.417292    1.141511
     33          1           0        4.985543   -1.170841    0.360565
     34          1           0        4.832726    0.314604   -0.658366
 ---------------------------------------------------------------------

 SCF Done:  E(UPBE1PBE) =  -1467.54839559     A.U. after   16 cycles

 The electronic state is 2-A.
 Alpha  occ. eigenvalues --  -89.28801 -89.08190 -19.24749 -19.24220 -19.22639
 Alpha  occ. eigenvalues --  -14.48515 -10.29732 -10.29700 -10.29122 -10.28717
 Alpha  occ. eigenvalues --  -10.26125 -10.24855 -10.23327 -10.22857 -10.22561
 Alpha  occ. eigenvalues --  -10.22312  -8.22120  -8.04433  -6.15843  -6.15799
 Alpha  occ. eigenvalues --   -6.15684  -5.98273  -5.97898  -5.97174  -1.14721
 Alpha  occ. eigenvalues --   -1.13466  -1.04482  -0.93287  -0.85923  -0.84028
 Alpha  occ. eigenvalues --   -0.82243  -0.77237  -0.74914  -0.72102  -0.71233
 Alpha  occ. eigenvalues --   -0.70588  -0.64471  -0.62455  -0.58968  -0.56423
 Alpha  occ. eigenvalues --   -0.53159  -0.51830  -0.51306  -0.50749  -0.50188
 Alpha  occ. eigenvalues --   -0.48513  -0.47404  -0.46359  -0.46176  -0.45127
 Alpha  occ. eigenvalues --   -0.44650  -0.43954  -0.42779  -0.42434  -0.41662
 Alpha  occ. eigenvalues --   -0.40504  -0.40093  -0.39040  -0.38864  -0.36500
 Alpha  occ. eigenvalues --   -0.36361  -0.36188  -0.35748  -0.35656  -0.34537
 Alpha  occ. eigenvalues --   -0.33588  -0.31777  -0.28315  -0.27231  -0.26894
 Alpha  occ. eigenvalues --   -0.20192
 Alpha virt. eigenvalues --   -0.05451  -0.02448   0.00471   0.01073   0.02634
 Alpha virt. eigenvalues --    0.03409   0.03689   0.04587   0.04819   0.04989
 Alpha virt. eigenvalues --    0.05446   0.05802   0.06159   0.06289   0.06851

  Beta  occ. eigenvalues --  -89.28801 -89.08190 -19.24749 -19.24220 -19.21205
  Beta  occ. eigenvalues --  -14.47328 -10.29734 -10.29700 -10.29186 -10.28780
  Beta  occ. eigenvalues --  -10.26124 -10.24853 -10.23276 -10.22805 -10.22514
  Beta  occ. eigenvalues --  -10.22263  -8.22120  -8.04433  -6.15843  -6.15799
  Beta  occ. eigenvalues --   -6.15684  -5.98273  -5.97897  -5.97174  -1.14721
  Beta  occ. eigenvalues --   -1.10834  -1.04482  -0.92331  -0.85731  -0.83925
  Beta  occ. eigenvalues --   -0.82110  -0.77039  -0.73846  -0.71851  -0.71103
  Beta  occ. eigenvalues --   -0.70134  -0.64418  -0.62327  -0.58590  -0.55915
  Beta  occ. eigenvalues --   -0.53068  -0.51823  -0.51017  -0.50414  -0.48340
  Beta  occ. eigenvalues --   -0.47520  -0.47175  -0.46342  -0.46111  -0.44977
  Beta  occ. eigenvalues --   -0.44259  -0.43798  -0.42503  -0.41647  -0.41192
  Beta  occ. eigenvalues --   -0.40202  -0.40033  -0.38709  -0.37664  -0.36320
  Beta  occ. eigenvalues --   -0.36129  -0.35722  -0.35695  -0.34509  -0.33584
  Beta  occ. eigenvalues --   -0.32692  -0.31771  -0.28235  -0.26718  -0.26004
  Beta virt. eigenvalues --   -0.05452  -0.03851  -0.02412   0.00484   0.01078
  Beta virt. eigenvalues --    0.02655   0.03436   0.03727   0.04628   0.04910
  Beta virt. eigenvalues --    0.05020   0.05471   0.05844   0.06187   0.06314

 Mulliken charges and spin densities:
               1          2
     1  O   -0.518326   0.483170
     2  N   -0.014818   0.499615
     3  C    0.201241  -0.036953
     4  C   -0.220098  -0.000155
     5  C    0.101241   0.002890
     6  C   -0.417795  -0.000299
     7  S   -0.019625   0.000366
     8  C    0.206115  -0.035073
     9  C   -0.311104   0.024700
    10  C   -0.344678   0.021034
    11  C   -0.342019   0.021406
    12  C   -0.320936   0.025482
    13  H    0.152916  -0.000808
    14  H    0.203358   0.000057
    15  H    0.165354   0.000029
    16  H    0.125989  -0.001132
    17  H    0.108901   0.000746
    18  H    0.145543  -0.001312
    19  H    0.147114  -0.001230
    20  H    0.108542   0.001754
    21  H    0.119063  -0.001261
    22  H    0.118214  -0.001390
    23  H    0.120695   0.001461
    24  H    0.142564  -0.001174
    25  H    0.143231  -0.001268
    26  H    0.114898   0.000712
    27  H    0.124760  -0.001252
    28  S    0.890320  -0.000081
    29  O   -0.511872  -0.000000
    30  O   -0.568740  -0.000024
    31  C   -0.395577  -0.000012
    32  H    0.176881   0.000001
    33  H    0.186246   0.000000
    34  H    0.182403   0.000001
 Sum of Mulliken charges =  -0.00000   1.00000

 Dipole moment (field-independent basis, Debye):
    X=              4.1615    Y=              1.8399    Z=             -2.2539  Tot=              5.0778
 Quadrupole moment (field-independent basis, Debye-Ang):
   XX=           -107.1379   YY=           -109.0329   ZZ=           -116.4097
   XY=              5.2819   XZ=              7.1354   YZ=             -0.6326

 Normal termination of Gaussian 16 at Mon Jun 17 21:30:43 2019.
