 Gaussian 16, Revision B.01,
 Gaussian 16:  AM64L-G16RevB.01 20-Dec-2017

 -----------------
 #p gen 6d pbe1pbe
 -----------------

 ------------------
 start preoptimized
 ------------------
 Symbolic Z-matrix:
 Charge =  0 Multiplicity = 2

                         Standard orientation:
 ---------------------------------------------------------------------
 Center     Atomic      Atomic             Coordinates (Angstroms)
 Number     Number       Type             X           Y           Z
 ---------------------------------------------------------------------
      1          8           0       -3.674166    0.175173    1.031104
      2          7           0       -2.641962    0.049627    0.309992
      3          6           0       -2.172316   -1.263160   -0.176347
      4          6           0       -0.862246   -0.861719   -0.784622
      5          6           0       -0.594156    0.441619   -0.649365
      6          6           0        0.614403    1.121064   -1.191819
      7         16           0        1.949743    1.447124    0.039184
      8          6           0       -1.699492    1.168972    0.089648
      9          6           0       -1.281191    1.747881    1.443140
     10          6           0       -2.381136    2.243638   -0.764395
     11          6           0       -3.155783   -1.820098   -1.208845
     12          6           0       -2.019984   -2.226704    1.004932
     13          1           0       -0.208281   -1.576636   -1.278065
     14          1           0        1.071682    0.534742   -1.990767
     15          1           0        0.391386    2.120948   -1.580337
     16          1           0       -0.747816    1.004371    2.040691
     17          1           0       -0.630067    2.618500    1.310771
     18          1           0       -2.180680    2.058629    1.983233
     19          1           0       -3.292703    2.579837   -0.257550
     20          1           0       -1.726746    3.111975   -0.901064
     21          1           0       -2.655025    1.849822   -1.747911
     22          1           0       -3.252775   -1.141789   -2.064566
     23          1           0       -2.812140   -2.796237   -1.573418
     24          1           0       -4.140512   -1.944505   -0.747481
     25          1           0       -2.988014   -2.338422    1.504340
     26          1           0       -1.685628   -3.208595    0.651466
     27          1           0       -1.289417   -1.851914    1.726134
     28         16           0        2.752628   -0.535035    0.111353
     29          8           0        2.321892   -1.213576    1.352674
     30          8           0        2.498816   -1.172593   -1.203591
     31          6           0        4.509160   -0.191722    0.248293
     32          1           0        4.667634    0.419807    1.140309
     33          1           0        4.986560   -1.168345    0.360072
     34          1           0        4.832451    0.316332   -0.659603
 ---------------------------------------------------------------------

 SCF Done:  E(UPBE1PBE) =  -1467.54850668     A.U. after   16 cycles

 The electronic state is 2-A.
 Alpha  occ. eigenvalues --  -89.28802 -89.08191 -19.24748 -19.24222 -19.22621
 Alpha  occ. eigenvalues --  -14.48510 -10.29737 -10.29700 -10.29119 -10.28711
 Alpha  occ. eigenvalues --  -10.26126 -10.24856 -10.23317 -10.22840 -10.22571
 Alpha  occ. eigenvalues --  -10.22317  -8.22121  -8.04434  -6.15843  -6.15799
 Alpha  occ. eigenvalues --   -6.15685  -5.98274  -5.97898  -5.97174  -1.14717
 Alpha  occ. eigenvalues --   -1.13563  -1.04479  -0.93297  -0.85924  -0.84032
 Alpha  occ. eigenvalues --   -0.82245  -0.77238  -0.74911  -0.72103  -0.71236
 Alpha  occ. eigenvalues --   -0.70587  -0.64474  -0.62458  -0.58978  -0.56421
 Alpha  occ. eigenvalues --   -0.53156  -0.51829  -0.51304  -0.50750  -0.50218
 Alpha  occ. eigenvalues --   -0.48515  -0.47410  -0.46360  -0.46178  -0.45134
 Alpha  occ. eigenvalues --   -0.44653  -0.43962  -0.42782  -0.42443  -0.41667
 Alpha  occ. eigenvalues --   -0.40508  -0.40088  -0.39066  -0.38879  -0.36502
 Alpha  occ. eigenvalues --   -0.36364  -0.36184  -0.35749  -0.35656  -0.34541
 Alpha  occ. eigenvalues --   -0.33587  -0.31776  -0.28318  -0.27222  -0.26894
 Alpha  occ. eigenvalues --   -0.20130
 Alpha virt. eigenvalues --   -0.05449  -0.02450   0.00470   0.01072   0.02633
 Alpha virt. eigenvalues --    0.03411   0.03693   0.04584   0.04816   0.04990
 Alpha virt. eigenvalues --    0.05447   0.05804   0.06161   0.06289   0.06852

  Beta  occ. eigenvalues --  -89.28802 -89.08191 -19.24748 -19.24222 -19.21190
  Beta  occ. eigenvalues --  -14.47321 -10.29739 -10.29700 -10.29184 -10.28776
  Beta  occ. eigenvalues --  -10.26125 -10.24853 -10.23265 -10.22789 -10.22523
  Beta  occ. eigenvalues --  -10.22268  -8.22121  -8.04434  -6.15843  -6.15799
  Beta  occ. eigenvalues --   -6.15685  -5.98274  -5.97898  -5.97174  -1.14717
  Beta  occ. eigenvalues --   -1.10932  -1.04479  -0.92345  -0.85733  -0.83929
  Beta  occ. eigenvalues --   -0.82113  -0.77042  -0.73843  -0.71851  -0.71106
  Beta  occ. eigenvalues --   -0.70131  -0.64421  -0.62330  -0.58601  -0.55912
  Beta  occ. eigenvalues --   -0.53066  -0.51822  -0.51017  -0.50414  -0.48344
  Beta  occ. eigenvalues --   -0.47527  -0.47180  -0.46344  -0.46114  -0.44980
  Beta  occ. eigenvalues --   -0.44268  -0.43806  -0.42506  -0.41649  -0.41196
  Beta  occ. eigenvalues --   -0.40204  -0.40032  -0.38735  -0.37669  -0.36323
  Beta  occ. eigenvalues --   -0.36127  -0.35720  -0.35696  -0.34513  -0.33584
  Beta  occ. eigenvalues --   -0.32729  -0.31771  -0.28237  -0.26721  -0.25999
  Beta virt. eigenvalues --   -0.05450  -0.03791  -0.02412   0.00482   0.01077
  Beta virt. eigenvalues --    0.02655   0.03438   0.03731   0.04625   0.04907
  Beta virt. eigenvalues --    0.05021   0.05472   0.05847   0.06189   0.06314

 Mulliken charges and spin densities:
               1          2
     1  O   -0.519414   0.482456
     2  N   -0.012791   0.500977
     3  C    0.202379  -0.037434
     4  C   -0.221289  -0.000175
     5  C    0.100277   0.002718
     6  C   -0.417779  -0.000336
     7  S   -0.019777   0.000398
     8  C    0.207198  -0.035544
     9  C   -0.311640   0.024681
    10  C   -0.344408   0.021325
    11  C   -0.341938   0.021637
    12  C   -0.321397   0.025484
    13  H    0.152875  -0.000854
    14  H    0.203254   0.000041
    15  H    0.165370   0.000035
    16  H    0.126057  -0.001154
    17  H    0.108979   0.000831
    18  H    0.145221  -0.001313
    19  H    0.147317  -0.001236
    20  H    0.108505   0.001723
    21  H    0.118958  -0.001258
    22  H    0.118079  -0.001391
    23  H    0.120620   0.001418
    24  H    0.142793  -0.001180
    25  H    0.142844  -0.001269
    26  H    0.115044   0.000807
    27  H    0.124946  -0.001278
    28  S    0.890413  -0.000081
    29  O   -0.511842   0.000002
    30  O   -0.568859  -0.000020
    31  C   -0.395558  -0.000012
    32  H    0.176910   0.000001
    33  H    0.186240   0.000000
    34  H    0.182410   0.000001
 Sum of Mulliken charges =  -0.00000   1.00000

 Dipole moment (field-independent basis, Debye):
    X=              4.1664    Y=              1.8405    Z=             -2.2422  Tot=              5.0768
 Quadrupole moment (field-independent basis, Debye-Ang):
   XX=           -107.2062   YY=           -109.0331   ZZ=           -116.3807
   XY=              5.3086   XZ=              7.0963   YZ=             -0.6329

 Normal termination of Gaussian 16 at Mon Jun 17 21:25:15 2019.
