 Gaussian 16, Revision B.01,
 Gaussian 16:  AM64L-G16RevB.01 20-Dec-2017

 -----------------
 #p gen 6d pbe1pbe
 -----------------

 ------------------
 start preoptimized
 ------------------
 Symbolic Z-matrix:
 Charge =  0 Multiplicity = 2

                         Standard orientation:
 ---------------------------------------------------------------------
 Center     Atomic      Atomic             Coordinates (Angstroms)
 Number     Number       Type             X           Y           Z
 ---------------------------------------------------------------------
      1          8           0       -3.713982    0.186249    0.961701
      2          7           0       -2.625931    0.040069    0.346221
      3          6           0       -2.165833   -1.267829   -0.164232
      4          6           0       -0.871083   -0.857792   -0.799939
      5          6           0       -0.600804    0.443974   -0.653188
      6          6           0        0.607445    1.123076   -1.196688
      7         16           0        1.944867    1.446161    0.033285
      8          6           0       -1.697106    1.165435    0.103041
      9          6           0       -1.259336    1.755110    1.446311
     10          6           0       -2.404699    2.229254   -0.741614
     11          6           0       -3.181301   -1.818744   -1.167680
     12          6           0       -1.969442   -2.243264    0.999931
     13          1           0       -0.223433   -1.569674   -1.305213
     14          1           0        1.064089    0.536949   -1.998342
     15          1           0        0.386048    2.124395   -1.583368
     16          1           0       -0.707815    1.019740    2.038919
     17          1           0       -0.618983    2.631265    1.300761
     18          1           0       -2.151628    2.062391    2.001322
     19          1           0       -3.306992    2.559735   -0.217646
     20          1           0       -1.758885    3.100930   -0.895869
     21          1           0       -2.695398    1.827468   -1.717586
     22          1           0       -3.307885   -1.134758   -2.012764
     23          1           0       -2.849784   -2.790133   -1.549776
     24          1           0       -4.149369   -1.946848   -0.673238
     25          1           0       -2.918551   -2.371814    1.530170
     26          1           0       -1.638377   -3.218213    0.626768
     27          1           0       -1.218209   -1.868650    1.701599
     28         16           0        2.756123   -0.532188    0.107576
     29          8           0        2.331632   -1.210490    1.350424
     30          8           0        2.502839   -1.175762   -1.206259
     31          6           0        4.510088   -0.176580    0.242546
     32          1           0        4.664952    0.438218    1.131487
     33          1           0        4.994013   -1.149987    0.356306
     34          1           0        4.830398    0.329114   -0.668695
 ---------------------------------------------------------------------

 SCF Done:  E(UPBE1PBE) =  -1467.54882483     A.U. after   16 cycles

 The electronic state is 2-A.
 Alpha  occ. eigenvalues --  -89.28810 -89.08199 -19.24737 -19.24238 -19.22558
 Alpha  occ. eigenvalues --  -14.48489 -10.29780 -10.29706 -10.29113 -10.28696
 Alpha  occ. eigenvalues --  -10.26141 -10.24870 -10.23246 -10.22735 -10.22646
 Alpha  occ. eigenvalues --  -10.22369  -8.22127  -8.04442  -6.15849  -6.15806
 Alpha  occ. eigenvalues --   -6.15691  -5.98283  -5.97905  -5.97183  -1.14691
 Alpha  occ. eigenvalues --   -1.13918  -1.04456  -0.93335  -0.85927  -0.84052
 Alpha  occ. eigenvalues --   -0.82259  -0.77248  -0.74901  -0.72091  -0.71241
 Alpha  occ. eigenvalues --   -0.70593  -0.64490  -0.62472  -0.59026  -0.56408
 Alpha  occ. eigenvalues --   -0.53140  -0.51825  -0.51297  -0.50754  -0.50334
 Alpha  occ. eigenvalues --   -0.48515  -0.47434  -0.46367  -0.46184  -0.45179
 Alpha  occ. eigenvalues --   -0.44663  -0.44005  -0.42775  -0.42466  -0.41675
 Alpha  occ. eigenvalues --   -0.40529  -0.40055  -0.39191  -0.38936  -0.36504
 Alpha  occ. eigenvalues --   -0.36385  -0.36159  -0.35747  -0.35655  -0.34571
 Alpha  occ. eigenvalues --   -0.33584  -0.31773  -0.28337  -0.27183  -0.26899
 Alpha  occ. eigenvalues --   -0.19890
 Alpha virt. eigenvalues --   -0.05438  -0.02469   0.00455   0.01063   0.02626
 Alpha virt. eigenvalues --    0.03423   0.03721   0.04563   0.04796   0.04994
 Alpha virt. eigenvalues --    0.05455   0.05819   0.06168   0.06285   0.06856

  Beta  occ. eigenvalues --  -89.28810 -89.08199 -19.24737 -19.24238 -19.21135
  Beta  occ. eigenvalues --  -14.47291 -10.29782 -10.29706 -10.29182 -10.28765
  Beta  occ. eigenvalues --  -10.26140 -10.24867 -10.23195 -10.22685 -10.22596
  Beta  occ. eigenvalues --  -10.22316  -8.22127  -8.04442  -6.15849  -6.15806
  Beta  occ. eigenvalues --   -6.15691  -5.98283  -5.97905  -5.97183  -1.14691
  Beta  occ. eigenvalues --   -1.11288  -1.04456  -0.92397  -0.85740  -0.83950
  Beta  occ. eigenvalues --   -0.82127  -0.77059  -0.73832  -0.71840  -0.71111
  Beta  occ. eigenvalues --   -0.70124  -0.64437  -0.62343  -0.58652  -0.55898
  Beta  occ. eigenvalues --   -0.53051  -0.51817  -0.51018  -0.50416  -0.48369
  Beta  occ. eigenvalues --   -0.47545  -0.47195  -0.46355  -0.46119  -0.44984
  Beta  occ. eigenvalues --   -0.44312  -0.43855  -0.42517  -0.41643  -0.41195
  Beta  occ. eigenvalues --   -0.40217  -0.40016  -0.38850  -0.37686  -0.36338
  Beta  occ. eigenvalues --   -0.36110  -0.35707  -0.35689  -0.34544  -0.33581
  Beta  occ. eigenvalues --   -0.32872  -0.31769  -0.28253  -0.26734  -0.25981
  Beta virt. eigenvalues --   -0.05439  -0.03559  -0.02422   0.00467   0.01069
  Beta virt. eigenvalues --    0.02648   0.03447   0.03761   0.04602   0.04888
  Beta virt. eigenvalues --    0.05027   0.05482   0.05864   0.06197   0.06312

 Mulliken charges and spin densities:
               1          2
     1  O   -0.523109   0.479602
     2  N   -0.008432   0.506576
     3  C    0.212414  -0.039356
     4  C   -0.229469  -0.000231
     5  C    0.093420   0.002030
     6  C   -0.417405  -0.000575
     7  S   -0.020891   0.000614
     8  C    0.216253  -0.037357
     9  C   -0.315198   0.023918
    10  C   -0.342012   0.023157
    11  C   -0.340840   0.022961
    12  C   -0.324458   0.024817
    13  H    0.152656  -0.000997
    14  H    0.202474  -0.000059
    15  H    0.165507   0.000082
    16  H    0.126717  -0.001286
    17  H    0.109464   0.001397
    18  H    0.142919  -0.001312
    19  H    0.149055  -0.001270
    20  H    0.108172   0.001373
    21  H    0.118196  -0.001207
    22  H    0.116981  -0.001333
    23  H    0.119935   0.000997
    24  H    0.144690  -0.001206
    25  H    0.140080  -0.001280
    26  H    0.116053   0.001424
    27  H    0.126516  -0.001420
    28  S    0.891143  -0.000077
    29  O   -0.511524   0.000015
    30  O   -0.569719   0.000010
    31  C   -0.395378  -0.000009
    32  H    0.177128  -0.000000
    33  H    0.186198   0.000002
    34  H    0.182467   0.000000
 Sum of Mulliken charges =  -0.00000   1.00000

 Dipole moment (field-independent basis, Debye):
    X=              4.2036    Y=              1.8464    Z=             -2.1536  Tot=              5.0712
 Quadrupole moment (field-independent basis, Debye-Ang):
   XX=           -107.7030   YY=           -109.0424   ZZ=           -116.1645
   XY=              5.5016   XZ=              6.7806   YZ=             -0.6308

 Normal termination of Gaussian 16 at Wed Jun 12 15:29:34 2019.
