 Gaussian 16, Revision B.01,
 Gaussian 16:  AM64L-G16RevB.01 20-Dec-2017

 -----------------
 #p gen 6d pbe1pbe
 -----------------

 ------------------
 start preoptimized
 ------------------
 Symbolic Z-matrix:
 Charge =  0 Multiplicity = 2

                         Standard orientation:
 ---------------------------------------------------------------------
 Center     Atomic      Atomic             Coordinates (Angstroms)
 Number     Number       Type             X           Y           Z
 ---------------------------------------------------------------------
      1          8           0       -3.756004    0.197310    0.889394
      2          7           0       -2.608980    0.030085    0.384078
      3          6           0       -2.158972   -1.272705   -0.151728
      4          6           0       -0.880411   -0.853665   -0.816023
      5          6           0       -0.607809    0.446480   -0.657095
      6          6           0        0.600099    1.125333   -1.201617
      7         16           0        1.939730    1.445179    0.027308
      8          6           0       -1.694574    1.161715    0.117213
      9          6           0       -1.236531    1.762533    1.449767
     10          6           0       -2.429252    2.214207   -0.717341
     11          6           0       -3.207795   -1.817295   -1.124730
     12          6           0       -1.916507   -2.260581    0.994228
     13          1           0       -0.239418   -1.562334   -1.333746
     14          1           0        1.056070    0.539524   -2.006185
     15          1           0        0.380366    2.128215   -1.586252
     16          1           0       -0.666064    1.035669    2.037006
     17          1           0       -0.607540    2.644452    1.290585
     18          1           0       -2.121220    2.066144    2.020401
     19          1           0       -3.321751    2.538681   -0.175448
     20          1           0       -1.792517    3.089352   -0.889841
     21          1           0       -2.737465    1.804159   -1.685388
     22          1           0       -3.365321   -1.127360   -1.958477
     23          1           0       -2.889039   -2.783740   -1.525231
     24          1           0       -4.158271   -1.949236   -0.595780
     25          1           0       -2.845617   -2.406699    1.556636
     26          1           0       -1.588985   -3.228263    0.600341
     27          1           0       -1.143751   -1.886175    1.675420
     28         16           0        2.759786   -0.529146    0.103500
     29          8           0        2.341864   -1.207359    1.347838
     30          8           0        2.507076   -1.178830   -1.209258
     31          6           0        4.511018   -0.160668    0.236426
     32          1           0        4.662082    0.457410    1.122248
     33          1           0        5.001789   -1.130690    0.352086
     34          1           0        4.828181    0.342681   -0.678237
 ---------------------------------------------------------------------

 SCF Done:  E(UPBE1PBE) =  -1467.54850276     A.U. after   16 cycles

 The electronic state is 2-A.
 Alpha  occ. eigenvalues --  -89.28821 -89.08212 -19.24730 -19.24258 -19.22612
 Alpha  occ. eigenvalues --  -14.48508 -10.29829 -10.29716 -10.29141 -10.28732
 Alpha  occ. eigenvalues --  -10.26171 -10.24905 -10.23182 -10.22732 -10.22656
 Alpha  occ. eigenvalues --  -10.22452  -8.22136  -8.04455  -6.15858  -6.15817
 Alpha  occ. eigenvalues --   -6.15701  -5.98297  -5.97917  -5.97196  -1.14668
 Alpha  occ. eigenvalues --   -1.13593  -1.04433  -0.93303  -0.85922  -0.84049
 Alpha  occ. eigenvalues --   -0.82278  -0.77267  -0.74914  -0.72051  -0.71218
 Alpha  occ. eigenvalues --   -0.70620  -0.64493  -0.62471  -0.59027  -0.56410
 Alpha  occ. eigenvalues --   -0.53123  -0.51822  -0.51303  -0.50768  -0.50231
 Alpha  occ. eigenvalues --   -0.48489  -0.47421  -0.46377  -0.46168  -0.45206
 Alpha  occ. eigenvalues --   -0.44657  -0.44022  -0.42720  -0.42398  -0.41632
 Alpha  occ. eigenvalues --   -0.40526  -0.40047  -0.39160  -0.38905  -0.36482
 Alpha  occ. eigenvalues --   -0.36398  -0.36131  -0.35735  -0.35646  -0.34598
 Alpha  occ. eigenvalues --   -0.33581  -0.31772  -0.28359  -0.27193  -0.26926
 Alpha  occ. eigenvalues --   -0.20068
 Alpha virt. eigenvalues --   -0.05431  -0.02500   0.00434   0.01050   0.02615
 Alpha virt. eigenvalues --    0.03427   0.03743   0.04539   0.04783   0.05004
 Alpha virt. eigenvalues --    0.05451   0.05831   0.06167   0.06281   0.06849

  Beta  occ. eigenvalues --  -89.28821 -89.08212 -19.24730 -19.24258 -19.21184
  Beta  occ. eigenvalues --  -14.47313 -10.29831 -10.29716 -10.29208 -10.28798
  Beta  occ. eigenvalues --  -10.26170 -10.24902 -10.23133 -10.22681 -10.22610
  Beta  occ. eigenvalues --  -10.22397  -8.22136  -8.04455  -6.15858  -6.15817
  Beta  occ. eigenvalues --   -6.15701  -5.98297  -5.97916  -5.97196  -1.14668
  Beta  occ. eigenvalues --   -1.10959  -1.04433  -0.92358  -0.85731  -0.83947
  Beta  occ. eigenvalues --   -0.82142  -0.77070  -0.73847  -0.71810  -0.71091
  Beta  occ. eigenvalues --   -0.70150  -0.64440  -0.62342  -0.58649  -0.55897
  Beta  occ. eigenvalues --   -0.53036  -0.51814  -0.51023  -0.50420  -0.48390
  Beta  occ. eigenvalues --   -0.47508  -0.47167  -0.46368  -0.46100  -0.44957
  Beta  occ. eigenvalues --   -0.44308  -0.43888  -0.42503  -0.41596  -0.41138
  Beta  occ. eigenvalues --   -0.40215  -0.40013  -0.38810  -0.37657  -0.36345
  Beta  occ. eigenvalues --   -0.36092  -0.35703  -0.35653  -0.34570  -0.33580
  Beta  occ. eigenvalues --   -0.32767  -0.31769  -0.28268  -0.26743  -0.25999
  Beta virt. eigenvalues --   -0.05432  -0.03721  -0.02453   0.00445   0.01055
  Beta virt. eigenvalues --    0.02636   0.03448   0.03782   0.04574   0.04872
  Beta virt. eigenvalues --    0.05038   0.05478   0.05876   0.06196   0.06311

 Mulliken charges and spin densities:
               1          2
     1  O   -0.517918   0.480918
     2  N   -0.024131   0.503460
     3  C    0.224029  -0.037784
     4  C   -0.235384  -0.000113
     5  C    0.087816   0.002367
     6  C   -0.416316  -0.000717
     7  S   -0.022223   0.000751
     8  C    0.226328  -0.035558
     9  C   -0.318339   0.022149
    10  C   -0.338477   0.024160
    11  C   -0.338488   0.023332
    12  C   -0.327137   0.023077
    13  H    0.152541  -0.000747
    14  H    0.201612  -0.000106
    15  H    0.165716   0.000116
    16  H    0.127588  -0.001370
    17  H    0.109864   0.001805
    18  H    0.140861  -0.001299
    19  H    0.151199  -0.001289
    20  H    0.107680   0.000811
    21  H    0.117598  -0.001099
    22  H    0.115955  -0.001168
    23  H    0.118941   0.000417
    24  H    0.146948  -0.001218
    25  H    0.137558  -0.001279
    26  H    0.117042   0.001849
    27  H    0.128316  -0.001455
    28  S    0.891385  -0.000074
    29  O   -0.510848   0.000024
    30  O   -0.570612   0.000045
    31  C   -0.395154  -0.000005
    32  H    0.177359  -0.000002
    33  H    0.186158   0.000003
    34  H    0.182532  -0.000001
 Sum of Mulliken charges =  -0.00000   1.00000

 Dipole moment (field-independent basis, Debye):
    X=              4.2450    Y=              1.8557    Z=             -2.0594  Tot=              5.0700
 Quadrupole moment (field-independent basis, Debye-Ang):
   XX=           -108.1930   YY=           -109.0612   ZZ=           -115.9499
   XY=              5.6930   XZ=              6.4118   YZ=             -0.6207

 Normal termination of Gaussian 16 at Mon Jun 17 21:25:18 2019.
